                              Psi4 1.0.0 Driver

  ==> Input File <==

--------------------------------------------------------------------------
memory 60 Gb

molecule molecule_94_psi {
0 1
C            3.043171484900     0.556782779729    -0.704301539970
H            3.840342714137    -0.144285026248    -0.452658059967
H            2.952316507185     1.264693615607     0.119475425241
H            3.354127041273     1.116215651152    -1.586389324539
C           -3.043197296864    -0.556667607904    -0.704317327491
H           -3.354164440014    -1.116000406195    -1.586464087706
H           -3.840355680112     0.144386188049    -0.452596210047
H           -2.952351701437    -1.264667870759     0.119383185079
C            1.734486601982    -0.185940619676    -0.953638344011
H            1.869143593993    -0.867198337102    -1.797318971090
H            0.963226159395     0.525201572501    -1.251797346432
C           -1.734500622677     0.186060801664    -0.953576181280
H           -0.963257824316    -0.525061071066    -1.251827301615
H           -1.869150763717     0.867424072406    -1.797172157955
C            1.275180335092    -0.988401013834     0.266719124163
H            2.128270340330    -1.582678769599     0.607098505290
H            0.504595221892    -1.708094729391    -0.023006618358
C            0.751960639266    -0.143560350814     1.436297375281
H            1.292646777014     0.806697528098     1.473947333606
H            0.985081693320    -0.656967698613     2.372245871501
C           -0.751930949267     0.143359410101     1.436331315617
H           -1.292617444806    -0.806902171578     1.473860625533
H           -0.985034030030     0.656639144706     2.372353833143
C           -1.275168848575     0.988359423447     0.266877469073
H           -2.128248100404     1.582596612577     0.607352614870
H           -0.504586064773     1.708087154177    -0.022768081626
}

set globals {
  reference rhf
  g_convergence gau_verytight
  basis aug-cc-pvtz
  freeze_core true
  scf_type df
  mp_type df
}
optimize('mp2')
--------------------------------------------------------------------------

    Molecular point group: c1
  Charge       = 0
  Multiplicity = 1
  Basis Set: AUG-CC-PVTZ
  Basis Set:
  @DF-RHF Final Energy:  -313.53130337884397
    Total Energy =                       -313.5313033788444272
  Basis Set:
    Molecular point group: c1
  Basis Set: AUG-CC-PVTZ
  Basis Set:
  Basis Set:
	 Reference Energy          =    -313.5313033788439725 [Eh]
	 Singles Energy            =      -0.0000000000000001 [Eh]
	 Same-Spin Energy          =      -0.3176631219123918 [Eh]
	 Opposite-Spin Energy      =      -1.1276669558346060 [Eh]
	 Correlation Energy        =      -1.4453300777469977 [Eh]
	 Total Energy              =    -314.9766334565909460 [Eh]
	 SCS Total Energy          =    -314.9903914331496253 [Eh]
  Basis Set: AUG-CC-PVTZ
  Basis Set:
  @DF-RHF Final Energy:  -313.53130332329113
    Total Energy =                       -313.5313033232910698
  Basis Set:
  Basis Set: AUG-CC-PVTZ
  Basis Set:
  @DF-RHF Final Energy:  -313.53130217337326
    Total Energy =                       -313.5313021733734331
  @DF-RHF Final Energy:  -313.53130339865902
    Total Energy =                       -313.5313033986595315
  @DF-RHF Final Energy:  -313.53130331530969
    Total Energy =                       -313.5313033153096853
  @DF-RHF Final Energy:  -313.53130337442639
    Total Energy =                       -313.5313033744264430
  @DF-RHF Final Energy:  -313.53130258159837
    Total Energy =                       -313.5313025815987658
	 Singles Energy            =      -0.0000000000000001 [Eh]
	 Same-Spin Energy          =      -0.3176632476479322 [Eh]
	 Opposite-Spin Energy      =      -1.1276676072246086 [Eh]
	 Correlation Energy        =      -1.4453308548725408 [Eh]
	 Total Energy              =    -314.9766334364709337 [Eh]
	 SCS Total Energy          =    -314.9903914594838739 [Eh]
  Charge       = 0
  Multiplicity = 1
  Basis Set: AUG-CC-PVTZ
  Basis Set:

    Orbital Energies (a.u.)
    -----------------------

    Doubly Occupied:

       1A    -11.211981     2A    -11.211979     3A    -11.211067
       4A    -11.210931     5A    -11.210499     6A    -11.210034
       7A    -11.206655     8A    -11.206655     9A     -1.093306
      10A     -1.056474    11A     -1.008231    12A     -0.945084
      13A     -0.892385    14A     -0.830987    15A     -0.784950
      16A     -0.755728    17A     -0.644648    18A     -0.622358
      19A     -0.613212    20A     -0.602835    21A     -0.574664
      22A     -0.560372    23A     -0.543761    24A     -0.534834
      25A     -0.511102    26A     -0.500715    27A     -0.498309
      28A     -0.471348    29A     -0.468720    30A     -0.455093
      31A     -0.447137    32A     -0.433912    33A     -0.431801

  @DF-RHF Final Energy:  -313.53130334652400

   => Energetics <=

    Nuclear Repulsion Energy =            406.1141042022222223
    One-Electron Energy =               -1227.3672811207065934
    Two-Electron Energy =                 507.7218735719605434
    DFT Exchange-Correlation Energy =       0.0000000000000000
    Empirical Dispersion Energy =           0.0000000000000000
    PCM Polarization Energy =               0.0000000000000000
    EFP Energy =                            0.0000000000000000
    Total Energy =                       -313.5313033465237709
  Basis Set:
    Molecular point group: c1
  Basis Set: AUG-CC-PVTZ
  Basis Set:
  Basis Set:
	 Reference Energy          =    -313.5313033465239982 [Eh]
	 Singles Energy            =      -0.0000000000000001 [Eh]
	 Same-Spin Energy          =      -0.3176631397772487 [Eh]
	 Opposite-Spin Energy      =      -1.1276669672797479 [Eh]
	 Correlation Energy        =      -1.4453301070569966 [Eh]
	 Total Energy              =    -314.9766334535809733 [Eh]

	 ================> DF-SCS-MP2 Energies <==================
	-----------------------------------------------------------
	 SCS Same-Spin Scale       =       0.3333333333333333 [-]
	 SCS Opposite-Spin Scale   =       1.2000000000000000 [-]
	 SCS Same-Spin Energy      =      -0.1058877132590829 [Eh]
	 SCS Opposite-Spin Energy  =      -1.3532003607356975 [Eh]
	 SCS Correlation Energy    =      -1.4590880739947805 [Eh]
	 SCS Total Energy          =    -314.9903914205187903 [Eh]
	-----------------------------------------------------------

  -Total Gradient:
     Atom            X                  Y                   Z
    ------   -----------------  -----------------  -----------------
       1        0.000000209341     0.000000101316     0.000000100603
       2       -0.000000232723     0.000000160708    -0.000000046126
       3        0.000000034069    -0.000000167457    -0.000000222643
       4       -0.000000116212    -0.000000139468     0.000000249384
       5       -0.000000182038    -0.000000018639    -0.000000035039
       6        0.000000053398     0.000000086695     0.000000139510
       7        0.000000119927    -0.000000086169    -0.000000041122
       8        0.000000018483     0.000000069491    -0.000000077977
       9       -0.000000326613    -0.000000017126    -0.000000112032
      10       -0.000000099609     0.000000202838     0.000000291172
      11        0.000000306632    -0.000000258348     0.000000057046
      12        0.000000104645    -0.000000102577    -0.000000113751
      13       -0.000000116720     0.000000228202     0.000000022868
      14        0.000000043403    -0.000000191806     0.000000169289
      15        0.000000175435    -0.000000100911    -0.000000098986
      16       -0.000000126085     0.000000089831    -0.000000003335
      17        0.000000211201     0.000000142431    -0.000000042802
      18        0.000000011785     0.000000084664    -0.000000145538
      19       -0.000000045203    -0.000000021621    -0.000000022145
      20       -0.000000000102    -0.000000068062     0.000000064264
      21        0.000000032783    -0.000000003060    -0.000000056498
      22       -0.000000069489    -0.000000111485    -0.000000042633
      23        0.000000022494    -0.000000031448     0.000000061631
      24        0.000000068189     0.000000311155    -0.000000081849
      25        0.000000087870    -0.000000020885    -0.000000044536
      26       -0.000000184865    -0.000000138269     0.000000031242

  **** Optimization is complete! (in 8 steps) ****
    Final optimized geometry and variables:
    Molecular point group: c1

    Geometry (in Angstrom), charge = 0, multiplicity = 1:

    C            3.043176982098     0.556784261668    -0.704282705176
    H            3.840344640943    -0.144292214756    -0.452654405406
    H            2.952328482796     1.264680229134     0.119507044602
    H            3.354132359416     1.116231378882    -1.586360913982
    C           -3.043180101870    -0.556692933269    -0.704329122477
    H           -3.354148512832    -1.116008975093    -1.586486283453
    H           -3.840347894607     0.144340845790    -0.452580387910
    H           -2.952312085471    -1.264712992278     0.119352402648
    C            1.734487538848    -0.185927573259    -0.953628304514
    H            1.869139336814    -0.867177932947    -1.797315057364
    H            0.963233429646     0.525223324507    -1.251780243769
    C           -1.734499904813     0.186064589726    -0.953587618990
    H           -0.963244177331    -0.525036834424    -1.251855471207
    H           -1.869170919580     0.867436000288    -1.797174009429
    C            1.275177410356    -0.988395411372     0.266721444286
    H            2.128265703478    -1.582674353910     0.607101874321
    H            0.504594433317    -1.708087939300    -0.023012643017
    C            0.751952254609    -0.143561102132     1.436300827301
    H            1.292641664084     0.806694432155     1.473960652065
    H            0.985064380984    -0.656975803590     2.372247699427
    C           -0.751938687419     0.143361791715     1.436326552265
    H           -1.292626880408    -0.806900298337     1.473856610461
    H           -0.985044416998     0.656643745112     2.372348135208
    C           -1.275175076897     0.988360629829     0.266870178424
    H           -2.128260094182     1.582592406816     0.607342408030
    H           -0.504594390366     1.708093411609    -0.022770552807

*** Psi4 exiting successfully. Buy a developer a beer!
