                              Psi4 1.0.0 Driver

  ==> Input File <==

--------------------------------------------------------------------------
memory 60 Gb

molecule molecule_45_psi {
0 1
C            3.526636775403    -0.112519742439    -0.010608463076
H            4.454905290029     0.240720599559     0.437757588441
H            3.677843434884    -0.172892116828    -1.089821231811
H            3.346294807434    -1.121404837316     0.358039961889
C           -2.515936298511     1.411285864915    -0.436588220053
H           -2.661908483194     2.443191680999    -0.117432982700
H           -3.434868443676     1.077522081193    -0.921429344010
H           -1.726217334516     1.405618011399    -1.187182758992
C            2.366975924278     0.822272629503     0.317420565526
H            2.637531989761     1.841943014899     0.034136862032
H            2.200796801793     0.834991042673     1.398453319906
C           -2.179554059476     0.508782022000     0.745222398998
H           -1.272381858298     0.861033512768     1.242157958446
H           -2.977692103102     0.583864270232     1.487482613937
C            1.063384515224     0.443065964302    -0.381672061354
H            1.218555583511     0.456153445596    -1.465875777459
H            0.312118025173     1.205493069271    -0.169689761086
C            0.531841583310    -0.931469953379     0.019660539584
H            0.478880866454    -0.993121164165     1.112751437207
H            1.253790723400    -1.688053757882    -0.292788661523
C           -0.842834604650    -1.269997965313    -0.575135453139
H           -0.963826647755    -0.748944913914    -1.528980453331
H           -0.883439569397    -2.336027772883    -0.809054211655
C           -2.018845542678    -0.958531884686     0.353037015829
H           -2.945567060108    -1.294976165500    -0.122182320820
H           -1.901202092268    -1.557869657879     1.260541540145
}

set globals {
  reference rhf
  g_convergence gau_verytight
  basis aug-cc-pvtz
  freeze_core true
  scf_type df
  mp_type df
}
optimize('mp2')
--------------------------------------------------------------------------

    Molecular point group: c1
  Charge       = 0
  Multiplicity = 1
  Basis Set: AUG-CC-PVTZ
  Basis Set:
  @DF-RHF Final Energy:  -313.53661226076684
    Total Energy =                       -313.5366122607661055
  Basis Set:
    Molecular point group: c1
  Basis Set: AUG-CC-PVTZ
  Basis Set:
  Basis Set:
	 Reference Energy          =    -313.5366122607668444 [Eh]
	 Singles Energy            =      -0.0000000000000001 [Eh]
	 Same-Spin Energy          =      -0.3171209524253326 [Eh]
	 Opposite-Spin Energy      =      -1.1266533577413056 [Eh]
	 Correlation Energy        =      -1.4437743101666380 [Eh]
	 Total Energy              =    -314.9803865709334900 [Eh]
	 SCS Total Energy          =    -314.9943032741982165 [Eh]
  Basis Set: AUG-CC-PVTZ
  Basis Set:
  @DF-RHF Final Energy:  -313.53661216613182
    Total Energy =                       -313.5366121661311354
  Basis Set:
  Basis Set: AUG-CC-PVTZ
  Basis Set:
  @DF-RHF Final Energy:  -313.53661217463269
    Total Energy =                       -313.5366121746322960
  @DF-RHF Final Energy:  -313.53661220951199
    Total Energy =                       -313.5366122095116452
  @DF-RHF Final Energy:  -313.53661222571395
    Total Energy =                       -313.5366122257144070
  @DF-RHF Final Energy:  -313.53661219192998
    Total Energy =                       -313.5366121919295210
  @DF-RHF Final Energy:  -313.53661221112475
    Total Energy =                       -313.5366122111253162
  @DF-RHF Final Energy:  -313.53661218636944
    Total Energy =                       -313.5366121863685862
  @DF-RHF Final Energy:  -313.53661219013998
    Total Energy =                       -313.5366121901400902
  @DF-RHF Final Energy:  -313.53661221216890
    Total Energy =                       -313.5366122121691888
	 Singles Energy            =      -0.0000000000000000 [Eh]
	 Same-Spin Energy          =      -0.3171209724729639 [Eh]
	 Opposite-Spin Energy      =      -1.1266533869083366 [Eh]
	 Correlation Energy        =      -1.4437743593813006 [Eh]
	 Total Energy              =    -314.9803865715501843 [Eh]
	 SCS Total Energy          =    -314.9943032672832146 [Eh]
  Charge       = 0
  Multiplicity = 1
  Basis Set: AUG-CC-PVTZ
  Basis Set:

    Orbital Energies (a.u.)
    -----------------------

    Doubly Occupied:

       1A    -11.212798     2A    -11.212442     3A    -11.210981
       4A    -11.210146     5A    -11.209729     6A    -11.209255
       7A    -11.206588     8A    -11.206504     9A     -1.093943
      10A     -1.059259    11A     -1.005862    12A     -0.947532
      13A     -0.888229    14A     -0.836272    15A     -0.778307
      16A     -0.757247    17A     -0.650761    18A     -0.624957
      19A     -0.610603    20A     -0.597010    21A     -0.573078
      22A     -0.561480    23A     -0.549898    24A     -0.530270
      25A     -0.515496    26A     -0.496091    27A     -0.493720
      28A     -0.476153    29A     -0.464869    30A     -0.460437
      31A     -0.446903    32A     -0.436400    33A     -0.431515

  @DF-RHF Final Energy:  -313.53661218577759

   => Energetics <=

    Nuclear Repulsion Energy =            400.7775208188136276
    One-Electron Energy =               -1216.6987949411754926
    Two-Electron Energy =                 502.3846619365840525
    DFT Exchange-Correlation Energy =       0.0000000000000000
    Empirical Dispersion Energy =           0.0000000000000000
    PCM Polarization Energy =               0.0000000000000000
    EFP Energy =                            0.0000000000000000
    Total Energy =                       -313.5366121857778126
  Basis Set:
    Molecular point group: c1
  Basis Set: AUG-CC-PVTZ
  Basis Set:
  Basis Set:
	 Reference Energy          =    -313.5366121857775852 [Eh]
	 Singles Energy            =      -0.0000000000000003 [Eh]
	 Same-Spin Energy          =      -0.3171209720840908 [Eh]
	 Opposite-Spin Energy      =      -1.1266534207126448 [Eh]
	 Correlation Energy        =      -1.4437743927967361 [Eh]
	 Total Energy              =    -314.9803865785743255 [Eh]

	 ================> DF-SCS-MP2 Energies <==================
	-----------------------------------------------------------
	 SCS Same-Spin Scale       =       0.3333333333333333 [-]
	 SCS Opposite-Spin Scale   =       1.2000000000000000 [-]
	 SCS Same-Spin Energy      =      -0.1057069906946969 [Eh]
	 SCS Opposite-Spin Energy  =      -1.3519841048551737 [Eh]
	 SCS Correlation Energy    =      -1.4576910955498712 [Eh]
	 SCS Total Energy          =    -314.9943032813274613 [Eh]
	-----------------------------------------------------------

  -Total Gradient:
     Atom            X                  Y                   Z
    ------   -----------------  -----------------  -----------------
       1        0.000000376449    -0.000000494526    -0.000000104044
       2       -0.000000478749    -0.000000282452    -0.000000260691
       3       -0.000000157747     0.000000111220     0.000000726307
       4        0.000000022590     0.000000680692    -0.000000196256
       5       -0.000000209046    -0.000000177976     0.000000313868
       6       -0.000000070048     0.000000329961     0.000000091891
       7       -0.000000335645    -0.000000086761    -0.000000188113
       8        0.000000379625     0.000000023421    -0.000000349136
       9       -0.000000444117     0.000000995168     0.000000554595
      10       -0.000000298822    -0.000000802980     0.000000201136
      11        0.000000093402    -0.000000057041    -0.000001023729
      12       -0.000000102752     0.000000078353    -0.000000679311
      13        0.000000685398     0.000000304561     0.000000430049
      14       -0.000000453200     0.000000025413     0.000000132499
      15       -0.000001413072    -0.000000051669    -0.000000411822
      16       -0.000000150125    -0.000000063030     0.000000901805
      17        0.000000879955    -0.000000499484    -0.000000149175
      18        0.000001292390     0.000000057246     0.000000139752
      19        0.000000161616     0.000000009782    -0.000000450808
      20       -0.000000378213     0.000000237190     0.000000190829
      21        0.000000840166    -0.000000034089     0.000000057566
      22        0.000000119701     0.000000209128    -0.000000319503
      23       -0.000000213810    -0.000000181469     0.000000036933
      24        0.000000389471    -0.000000028849     0.000000274122
      25       -0.000000475524    -0.000000171565    -0.000000194267
      26       -0.000000059893    -0.000000130244     0.000000275501

  **** Optimization is complete! (in 11 steps) ****
    Final optimized geometry and variables:
    Molecular point group: c1

    Geometry (in Angstrom), charge = 0, multiplicity = 1:

    C            3.526628726367    -0.112519747027    -0.010597478869
    H            4.454894794600     0.240719516176     0.437773646380
    H            3.677843694979    -0.172900594679    -1.089808338612
    H            3.346278829837    -1.121401014792     0.358056768929
    C           -2.515928123311     1.411288337713    -0.436582114898
    H           -2.661893551511     2.443195030212    -0.117424376931
    H           -3.434862919097     1.077531543079    -0.921424145587
    H           -1.726208853762     1.405616874267    -1.187177475962
    C            2.366968522226     0.822279050902     0.317415306536
    H            2.637528482998     1.841946134188     0.034124786773
    H            2.200782494057     0.835006417789     1.398446644116
    C           -2.179550997860     0.508779718373     0.745227145146
    H           -1.272380035848     0.861028694396     1.242168232578
    H           -2.977692394213     0.583861429544     1.487483956192
    C            1.063382240871     0.443066339120    -0.381682278943
    H            1.218557204196     0.456153492511    -1.465885723227
    H            0.312111245073     1.205490017341    -0.169702234894
    C            0.531845517482    -0.931471964191     0.019651217848
    H            0.478891601600    -0.993126335110     1.112742472827
    H            1.253794518135    -1.688053429799    -0.292803920916
    C           -0.842834749099    -1.270000665247    -0.575137020302
    H           -0.963831839801    -0.748948128919    -1.528982329351
    H           -0.883442332212    -2.336030529109    -0.809054973280
    C           -2.018842498224    -0.958534023872     0.353040105635
    H           -2.945565742658    -1.294978458727    -0.122175814967
    H           -1.901195380707    -1.557871636230     1.260543752299

*** Psi4 exiting successfully. Buy a developer a beer!
