                              Psi4 1.0.0 Driver

  ==> Input File <==

--------------------------------------------------------------------------
memory 30 Gb

molecule molecule_77_psi {
0 1
symmetry c1
    C           -4.067778904483    -0.684901060495    -0.001422495896
    H           -4.664900687982     0.149017318603    -0.366006277159
    H           -4.196924685887    -0.737631258874     1.078281104861
    H           -4.468253009576    -1.599776435791    -0.432023573907
    C            4.255325026003    -0.289149335673    -0.060053157440
    H            4.961674579347    -1.076234487536     0.193632143364
    H            4.528351092855     0.601700773744     0.502697534950
    H            4.371695627572    -0.061248130196    -1.118050804367
    C           -2.604780144164    -0.492127621454    -0.354886802832
    H           -2.488353561383    -0.449450165027    -1.439717849738
    H           -2.033835171544    -1.354671049518    -0.013292862709
    C            2.826478792861    -0.697916355428     0.245272386735
    H            2.575507910698    -1.604038489358    -0.308285217635
    H            2.731589695760    -0.944821662164     1.303845011936
    C           -2.030865596471     0.774640072361     0.253385059700
    H           -2.065561241005     0.693633585354     1.342856432245
    H           -2.673481478161     1.615528589112    -0.015614391425
    C           -0.605797149366     1.073227154623    -0.180324352124
    H           -0.285615794171     2.019394437623     0.260390135856
    H           -0.580754532012     1.211513145364    -1.264061556603
    C            0.390962545592    -0.005620410447     0.202884246593
    H            0.293182193645    -0.222803416962     1.269938484062
    H            0.158701839370    -0.930840870337    -0.326198478771
    C            1.824010861085     0.385876630514    -0.101081662321
    H            1.911922913027     0.631757325979    -1.162360567840
    H            2.073229659884     1.296587575090     0.449043620015
}

set globals {
  reference rhf
  g_convergence gau_verytight
  basis aug-cc-pvtz
  freeze_core true
  scf_type df
  mp_type df
}
optimize('mp2')
--------------------------------------------------------------------------

    Molecular point group: c1
  Charge       = 0
  Multiplicity = 1
  Basis Set: AUG-CC-PVTZ
  Basis Set:
  @DF-RHF Final Energy:  -313.54572248668842
    Total Energy =                       -313.5457224866881916
  Basis Set:
    Molecular point group: c1
  Basis Set: AUG-CC-PVTZ
  Basis Set:
  Basis Set:
	 Reference Energy          =    -313.5457224866884189 [Eh]
	 Singles Energy            =      -0.0000000000000003 [Eh]
	 Same-Spin Energy          =      -0.3153646755459301 [Eh]
	 Opposite-Spin Energy      =      -1.1231191955803854 [Eh]
	 Correlation Energy        =      -1.4384838711263157 [Eh]
	 Total Energy              =    -314.9842063578147418 [Eh]
	 SCS Total Energy          =    -314.9985870799001759 [Eh]
  Basis Set: AUG-CC-PVTZ
  Basis Set:
  @DF-RHF Final Energy:  -313.54597330534915
    Total Energy =                       -313.5459733053492073
  Basis Set:
  Basis Set: AUG-CC-PVTZ
  Basis Set:
  @DF-RHF Final Energy:  -313.54590415514258
    Total Energy =                       -313.5459041551422956
  @DF-RHF Final Energy:  -313.54596419108037
    Total Energy =                       -313.5459641910807136
  @DF-RHF Final Energy:  -313.54597682855064
    Total Energy =                       -313.5459768285506925
  @DF-RHF Final Energy:  -313.54597381827671
    Total Energy =                       -313.5459738182767069
  @DF-RHF Final Energy:  -313.54597385492889
    Total Energy =                       -313.5459738549288318
  @DF-RHF Final Energy:  -313.54597362344123
    Total Energy =                       -313.5459736234407728
  @DF-RHF Final Energy:  -313.54597339488600
    Total Energy =                       -313.5459733948861185
  @DF-RHF Final Energy:  -313.54597341518047
    Total Energy =                       -313.5459734151803559
  @DF-RHF Final Energy:  -313.54597350238527
    Total Energy =                       -313.5459735023852659
  @DF-RHF Final Energy:  -313.54597339365802
    Total Energy =                       -313.5459733936579028
  @DF-RHF Final Energy:  -313.54597344415509
    Total Energy =                       -313.5459734441549244
  @DF-RHF Final Energy:  -313.54597337466021
    Total Energy =                       -313.5459733746603774
  @DF-RHF Final Energy:  -313.54597332358298
    Total Energy =                       -313.5459733235829276
  @DF-RHF Final Energy:  -313.54597344744349
    Total Energy =                       -313.5459734474436573
  @DF-RHF Final Energy:  -313.54597342478633
    Total Energy =                       -313.5459734247866095
	 Singles Energy            =      -0.0000000000000004 [Eh]
	 Same-Spin Energy          =      -0.3149890216753566 [Eh]
	 Opposite-Spin Energy      =      -1.1235259824719908 [Eh]
	 Correlation Energy        =      -1.4385150041473478 [Eh]
	 Total Energy              =    -314.9844884289336733 [Eh]
	 SCS Total Energy          =    -314.9992009443111556 [Eh]
  Charge       = 0
  Multiplicity = 1
  Basis Set: AUG-CC-PVTZ
  Basis Set:

    Orbital Energies (a.u.)
    -----------------------

    Doubly Occupied:

       1A    -11.212421     2A    -11.211899     3A    -11.210672
       4A    -11.210149     5A    -11.209976     6A    -11.209228
       7A    -11.207020     8A    -11.206903     9A     -1.093483
      10A     -1.061783    11A     -1.011631    12A     -0.949815
      13A     -0.875600    14A     -0.823638    15A     -0.788620
      16A     -0.769273    17A     -0.650028    18A     -0.631644
      19A     -0.601719    20A     -0.594357    21A     -0.573189
      22A     -0.563812    23A     -0.547738    24A     -0.525994
      25A     -0.514046    26A     -0.498108    27A     -0.486372
      28A     -0.474830    29A     -0.468553    30A     -0.459640
      31A     -0.455000    32A     -0.442506    33A     -0.431941

  @DF-RHF Final Energy:  -313.54597345414834

   => Energetics <=

    Nuclear Repulsion Energy =            381.7066736539277372
    One-Electron Energy =               -1178.5621209355381325
    Two-Electron Energy =                 483.3094738274620568
    DFT Exchange-Correlation Energy =       0.0000000000000000
    Empirical Dispersion Energy =           0.0000000000000000
    PCM Polarization Energy =               0.0000000000000000
    EFP Energy =                            0.0000000000000000
    Total Energy =                       -313.5459734541483385
  Basis Set:
    Molecular point group: c1
  Basis Set: AUG-CC-PVTZ
  Basis Set:
  Basis Set:
	 Reference Energy          =    -313.5459734541483385 [Eh]
	 Singles Energy            =      -0.0000000000000001 [Eh]
	 Same-Spin Energy          =      -0.3149890410574458 [Eh]
	 Opposite-Spin Energy      =      -1.1235259318931989 [Eh]
	 Correlation Energy        =      -1.4385149729506448 [Eh]
	 Total Energy              =    -314.9844884270989951 [Eh]

	 ================> DF-SCS-MP2 Energies <==================
	-----------------------------------------------------------
	 SCS Same-Spin Scale       =       0.3333333333333333 [-]
	 SCS Opposite-Spin Scale   =       1.2000000000000000 [-]
	 SCS Same-Spin Energy      =      -0.1049963470191486 [Eh]
	 SCS Opposite-Spin Energy  =      -1.3482311182718387 [Eh]
	 SCS Correlation Energy    =      -1.4532274652909873 [Eh]
	 SCS Total Energy          =    -314.9992009194393177 [Eh]
	-----------------------------------------------------------

  -Total Gradient:
     Atom            X                  Y                   Z
    ------   -----------------  -----------------  -----------------
       1       -0.000000111417     0.000000057371     0.000000013788
       2        0.000000104320    -0.000000132804     0.000000052095
       3        0.000000016890     0.000000013523    -0.000000157584
       4        0.000000058713     0.000000120262     0.000000052494
       5        0.000000198068     0.000000095861    -0.000000078850
       6       -0.000000136749     0.000000140083    -0.000000051150
       7       -0.000000075956    -0.000000224362    -0.000000112884
       8       -0.000000025317    -0.000000044613     0.000000253537
       9        0.000000067028    -0.000000113209     0.000000010554
      10        0.000000010641     0.000000026595     0.000000210810
      11       -0.000000080176     0.000000094314    -0.000000052860
      12       -0.000000144485    -0.000000313580     0.000000160300
      13        0.000000018431     0.000000270243     0.000000092911
      14       -0.000000047849     0.000000120639    -0.000000289764
      15       -0.000000143219     0.000000117379    -0.000000019546
      16       -0.000000035665     0.000000019148    -0.000000194179
      17        0.000000125121    -0.000000141732     0.000000084757
      18       -0.000000124775     0.000000122510    -0.000000031111
      19       -0.000000061980    -0.000000199009    -0.000000144251
      20        0.000000063419    -0.000000022913     0.000000299531
      21        0.000000139192    -0.000000407121     0.000000119946
      22        0.000000057436     0.000000103299    -0.000000358367
      23        0.000000114398     0.000000268457     0.000000100360
      24        0.000000205981     0.000000629275    -0.000000248576
      25       -0.000000052672    -0.000000142631     0.000000544034
      26       -0.000000139371    -0.000000456987    -0.000000255994

  **** Optimization is complete! (in 18 steps) ****
    Final optimized geometry and variables:
    Molecular point group: c1

    Geometry (in Angstrom), charge = 0, multiplicity = 1:

    C           -4.091610056053    -0.686236445901    -0.018404871111
    H           -4.696029933843     0.167742491705    -0.326651895542
    H           -4.198967082949    -0.795590466111     1.061573566040
    H           -4.505724364497    -1.578092621957    -0.488054194203
    C            4.275904428801    -0.292519093394    -0.075452317898
    H            4.990043067418    -1.066627018033     0.204228406002
    H            4.557501319739     0.626094371190     0.440736818880
    H            4.376187266015    -0.114744173053    -1.146877087648
    C           -2.629806184882    -0.478131499586    -0.395558905521
    H           -2.537184856466    -0.384401497710    -1.481510540584
    H           -2.052780755071    -1.359240729898    -0.108689165590
    C            2.847370935924    -0.691286890221     0.273718077797
    H            2.590413070287    -1.625701922291    -0.232255716453
    H            2.770483919730    -0.888587748005     1.346274178526
    C           -2.040317898394     0.764717242215     0.262061050386
    H           -2.076420374120     0.646069626487     1.350048567367
    H           -2.677747390131     1.621279322583     0.023564974979
    C           -0.606862747864     1.071070919499    -0.164226331289
    H           -0.296127390145     2.022537888466     0.276977065538
    H           -0.574738058083     1.208313731086    -1.249996462284
    C            0.399584549373    -0.002672577813     0.234192968408
    H            0.322445881031    -0.185846503845     1.311341193407
    H            0.156292678346    -0.946595836323    -0.260299877929
    C            1.833598492539     0.378974481793    -0.110348388311
    H            1.906810984856     0.575744837755    -1.184939380892
    H            2.090072826330     1.316607759435     0.393311444804

*** Psi4 exiting successfully. Buy a developer a beer!
