                              Psi4 1.0.0 Driver

  ==> Input File <==

--------------------------------------------------------------------------
memory 60 Gb

molecule molecule_74_psi {
0 1
C           -2.225040350829     1.547445021642     0.213069630605
H           -2.634108433028     1.768990156345    -0.774280688517
H           -1.159819190021     1.777362884780     0.189304839121
H           -2.691512319110     2.223718102811     0.929046725317
C            2.114423149396     1.448434048961    -0.567701716100
H            2.153337104246     1.140366660935    -1.613697332679
H            2.709071425701     2.355831481359    -0.461975982830
H            1.081834388184     1.704453935973    -0.332739471194
C           -2.473185931629     0.090655909693     0.586990222120
H           -3.546109948084    -0.072523127149     0.710663880542
H           -2.019689890454    -0.121329729369     1.557583457298
C            2.636672391188     0.345112370908     0.345281570327
H            3.704693096792     0.205070538332     0.161972250983
H            2.542190760980     0.663884193017     1.387120921299
C           -1.948134631903    -0.894366117658    -0.457003343966
H           -2.507649351852    -0.752254145520    -1.386377384197
H           -2.156426867709    -1.914352202670    -0.120780438868
C           -0.453910671121    -0.769751245578    -0.753520630720
H           -0.243942901099     0.196818902775    -1.214447339132
H           -0.182376961583    -1.524159181385    -1.497549363097
C            0.425422376243    -0.973213002876     0.478351760095
H            0.223872072364    -0.193359762212     1.219426059122
H            0.129407580873    -1.917536119560     0.944838474145
C            1.931281581107    -1.000390150232     0.179465648702
H            2.417569048459    -1.718017073172     0.843948472191
H            2.090026821439    -1.369287641643    -0.838931718716
}

set globals {
  reference rhf
  g_convergence gau_verytight
  basis aug-cc-pvtz
  freeze_core true
  scf_type df
  mp_type df
}
optimize('mp2')
--------------------------------------------------------------------------

    Molecular point group: c1
  Charge       = 0
  Multiplicity = 1
  Basis Set: AUG-CC-PVTZ
  Basis Set:
  @DF-RHF Final Energy:  -313.53647982214198
    Total Energy =                       -313.5364798221420415
  Basis Set:
    Molecular point group: c1
  Basis Set: AUG-CC-PVTZ
  Basis Set:
  Basis Set:
	 Reference Energy          =    -313.5364798221419846 [Eh]
	 Singles Energy            =      -0.0000000000000005 [Eh]
	 Same-Spin Energy          =      -0.3173398266100065 [Eh]
	 Opposite-Spin Energy      =      -1.1269876819445721 [Eh]
	 Correlation Energy        =      -1.4443275085545790 [Eh]
	 Total Energy              =    -314.9808073306965639 [Eh]
	 SCS Total Energy          =    -314.9946449826788353 [Eh]
  Basis Set: AUG-CC-PVTZ
  Basis Set:
  @DF-RHF Final Energy:  -313.53647947760049
    Total Energy =                       -313.5364794776005510
  Basis Set:
  Basis Set: AUG-CC-PVTZ
  Basis Set:
  @DF-RHF Final Energy:  -313.53647938933267
    Total Energy =                       -313.5364793893323281
  @DF-RHF Final Energy:  -313.53647995631707
    Total Energy =                       -313.5364799563169527
  @DF-RHF Final Energy:  -313.53647966491621
    Total Energy =                       -313.5364796649163281
  @DF-RHF Final Energy:  -313.53647984935503
    Total Energy =                       -313.5364798493552598
  @DF-RHF Final Energy:  -313.53647984057079
    Total Energy =                       -313.5364798405705642
  @DF-RHF Final Energy:  -313.53647970557876
    Total Energy =                       -313.5364797055787562
  @DF-RHF Final Energy:  -313.53647983296247
    Total Energy =                       -313.5364798329622431
  @DF-RHF Final Energy:  -313.53647984881604
    Total Energy =                       -313.5364798488162137
  @DF-RHF Final Energy:  -313.53647985039373
    Total Energy =                       -313.5364798503939028
  @DF-RHF Final Energy:  -313.53647985726838
    Total Energy =                       -313.5364798572684322
  @DF-RHF Final Energy:  -313.53647983474235
    Total Energy =                       -313.5364798347421811
  @DF-RHF Final Energy:  -313.53647986240912
    Total Energy =                       -313.5364798624094647
	 Singles Energy            =      -0.0000000000000002 [Eh]
	 Same-Spin Energy          =      -0.3173397965752810 [Eh]
	 Opposite-Spin Energy      =      -1.1269876720846363 [Eh]
	 Correlation Energy        =      -1.4443274686599177 [Eh]
	 Total Energy              =    -314.9808073310690588 [Eh]
	 SCS Total Energy          =    -314.9946450011024695 [Eh]
  Charge       = 0
  Multiplicity = 1
  Basis Set: AUG-CC-PVTZ
  Basis Set:

    Orbital Energies (a.u.)
    -----------------------

    Doubly Occupied:

       1A    -11.213341     2A    -11.211949     3A    -11.210745
       4A    -11.210198     5A    -11.210065     6A    -11.208291
       7A    -11.207197     8A    -11.207170     9A     -1.093983
      10A     -1.059856    11A     -1.004381    12A     -0.948124
      13A     -0.890758    14A     -0.835200    15A     -0.778557
      16A     -0.755248    17A     -0.647951    18A     -0.626822
      19A     -0.611056    20A     -0.606800    21A     -0.570556
      22A     -0.552139    23A     -0.547415    24A     -0.532695
      25A     -0.518817    26A     -0.499791    27A     -0.497827
      28A     -0.472925    29A     -0.463340    30A     -0.458161
      31A     -0.443856    32A     -0.440015    33A     -0.432029

  @DF-RHF Final Energy:  -313.53647988241318

   => Energetics <=

    Nuclear Repulsion Energy =            403.9433334464077348
    One-Electron Energy =               -1223.0251136550662068
    Two-Electron Energy =                 505.5453003262453535
    DFT Exchange-Correlation Energy =       0.0000000000000000
    Empirical Dispersion Energy =           0.0000000000000000
    PCM Polarization Energy =               0.0000000000000000
    EFP Energy =                            0.0000000000000000
    Total Energy =                       -313.5364798824131753
  Basis Set:
    Molecular point group: c1
  Basis Set: AUG-CC-PVTZ
  Basis Set:
  Basis Set:
	 Reference Energy          =    -313.5364798824131753 [Eh]
	 Singles Energy            =      -0.0000000000000003 [Eh]
	 Same-Spin Energy          =      -0.3173397864864720 [Eh]
	 Opposite-Spin Energy      =      -1.1269876662653391 [Eh]
	 Correlation Energy        =      -1.4443274527518113 [Eh]
	 Total Energy              =    -314.9808073351649682 [Eh]

	 ================> DF-SCS-MP2 Energies <==================
	-----------------------------------------------------------
	 SCS Same-Spin Scale       =       0.3333333333333333 [-]
	 SCS Opposite-Spin Scale   =       1.2000000000000000 [-]
	 SCS Same-Spin Energy      =      -0.1057799288288240 [Eh]
	 SCS Opposite-Spin Energy  =      -1.3523851995184069 [Eh]
	 SCS Correlation Energy    =      -1.4581651283472310 [Eh]
	 SCS Total Energy          =    -314.9946450107603937 [Eh]
	-----------------------------------------------------------

  -Total Gradient:
     Atom            X                  Y                   Z
    ------   -----------------  -----------------  -----------------
       1       -0.000000025824    -0.000000140848     0.000000023796
       2       -0.000000015547     0.000000044353    -0.000000072962
       3        0.000000113196     0.000000070063     0.000000004157
       4       -0.000000085091     0.000000115094     0.000000123401
       5        0.000000109369    -0.000000079292     0.000000161917
       6        0.000000001301    -0.000000054937    -0.000000196916
       7        0.000000106350     0.000000112871     0.000000068636
       8       -0.000000256604     0.000000111506    -0.000000039732
       9        0.000000050912     0.000000009829     0.000000045093
      10        0.000000041163     0.000000043680     0.000000010081
      11       -0.000000036198    -0.000000026904    -0.000000001804
      12       -0.000000039478     0.000000046565    -0.000000311832
      13        0.000000224637    -0.000000066781    -0.000000058744
      14       -0.000000047323     0.000000068320     0.000000337800
      15        0.000000166942    -0.000000092772    -0.000000130428
      16        0.000000053434    -0.000000049565     0.000000110033
      17        0.000000050912     0.000000113552    -0.000000096287
      18       -0.000000262049    -0.000000071173     0.000000161428
      19       -0.000000121807    -0.000000010453    -0.000000135868
      20        0.000000133893    -0.000000015152     0.000000045587
      21       -0.000000161620    -0.000000238980    -0.000000490944
      22       -0.000000049659     0.000000247947     0.000000282092
      23       -0.000000093915    -0.000000250789     0.000000037764
      24       -0.000000122819     0.000000399316     0.000000337648
      25        0.000000177736    -0.000000122335     0.000000245592
      26        0.000000088091    -0.000000163114    -0.000000459506

  **** Optimization is complete! (in 15 steps) ****
    Final optimized geometry and variables:
    Molecular point group: c1

    Geometry (in Angstrom), charge = 0, multiplicity = 1:

    C           -2.225041744288     1.547447294445     0.213074726107
    H           -2.634114751251     1.768993886649    -0.774273619614
    H           -1.159821265345     1.777369253127     0.189306054562
    H           -2.691513357615     2.223717209156     0.929055802709
    C            2.114425568291     1.448433891599    -0.567706158528
    H            2.153352143732     1.140365006564    -1.613700932577
    H            2.709069433082     2.355833845617    -0.461975146998
    H            1.081833052456     1.704450422411    -0.332756133065
    C           -2.473181378035     0.090656681987     0.586992948203
    H           -3.546104625953    -0.072524386303     0.710672524820
    H           -2.019679634773    -0.121330027932     1.557583586540
    C            2.636669473358     0.345115333211     0.345283799684
    H            3.704691741446     0.205074217933     0.161981899330
    H            2.542180512770     0.663889732229     1.387122081844
    C           -1.948135183413    -0.894363585978    -0.457005267709
    H           -2.507650634438    -0.752245955674    -1.386378116595
    H           -2.156431792656    -1.914350067303    -0.120785836759
    C           -0.453911096124    -0.769756510972    -0.753524541976
    H           -0.243939774913     0.196810629113    -1.214455881480
    H           -0.182380104005    -1.524168702151    -1.497549875466
    C            0.425420697123    -0.973216911990     0.478348194015
    H            0.223865326783    -0.193365736590     1.219424096789
    H            0.129406565181    -1.917542293581     0.944831641178
    C            1.931281743072    -1.000389118885     0.179468855911
    H            2.417568247047    -1.718012428274     0.843957043013
    H            2.090033359769    -1.369289571804    -0.838926857677

*** Psi4 exiting successfully. Buy a developer a beer!
