                              Psi4 1.0.0 Driver

  ==> Input File <==

--------------------------------------------------------------------------
memory 30 Gb

molecule molecule_70_psi {
0 1
symmetry c1
    C           -3.236545476738    -0.855791223896    -0.183599093346
    H           -2.456388470265    -1.580513003543    -0.400172356064
    H           -3.725020328617    -0.607626065256    -1.124371726770
    H           -3.972752379950    -1.333268412458     0.459853635251
    C            3.236549831393     0.855789640118     0.183583073115
    H            3.725035872058     0.607627499750     1.124350328106
    H            2.456396087391     1.580512251740     0.400163392352
    H            3.972748904583     1.333264285793    -0.459880085552
    C           -2.668564009039     0.400039566696     0.457223864705
    H           -2.255354378347     0.160958476950     1.439029436997
    H           -3.485734668536     1.098414234321     0.634070504711
    C            2.668559224273    -0.400042683190    -0.457228493443
    H            2.255340773316    -0.160964727015    -1.439030693530
    H            3.485725773032    -1.098420393716    -0.634080445539
    C           -1.588964010091     1.078989460830    -0.387776254560
    H           -1.708561745941     2.161277841364    -0.336375170870
    H           -1.728812127907     0.803816527686    -1.435990469785
    C           -0.164425127286     0.740142402779     0.028341599826
    H            0.002767290244     1.101602561757     1.046741293349
    H            0.524469658446     1.288477723497    -0.615094956276
    C            0.164423863839    -0.740141908215    -0.028328419412
    H           -0.524467408583    -1.288477344341     0.615111717715
    H           -0.002770620249    -1.101603830166    -1.046727088848
    C            1.588965331396    -1.078985358087     0.387784914776
    H            1.728818923988    -0.803802609580     1.435995375199
    H            1.708563277684    -2.161273790796     0.336393120651
}

set globals {
  reference rhf
  g_convergence gau_verytight
  basis aug-cc-pvtz
  freeze_core true
  scf_type df
  mp_type df
}
optimize('mp2')
--------------------------------------------------------------------------

    Molecular point group: c1
  Charge       = 0
  Multiplicity = 1
  Basis Set: AUG-CC-PVTZ
  Basis Set:
  @DF-RHF Final Energy:  -313.53321733591616
    Total Energy =                       -313.5332173359162198
  Basis Set:
    Molecular point group: c1
  Basis Set: AUG-CC-PVTZ
  Basis Set:
  Basis Set:
	 Reference Energy          =    -313.5332173359161629 [Eh]
	 Singles Energy            =      -0.0000000000000001 [Eh]
	 Same-Spin Energy          =      -0.3171558766595397 [Eh]
	 Opposite-Spin Energy      =      -1.1262124243593377 [Eh]
	 Correlation Energy        =      -1.4433683010188774 [Eh]
	 Total Energy              =    -314.9765856369350558 [Eh]
	 SCS Total Energy          =    -314.9903908707005371 [Eh]
  Basis Set: AUG-CC-PVTZ
  Basis Set:
  @DF-RHF Final Energy:  -313.53348137414014
    Total Energy =                       -313.5334813741402513
  Basis Set:
  Basis Set: AUG-CC-PVTZ
  Basis Set:
  @DF-RHF Final Energy:  -313.53355195434028
    Total Energy =                       -313.5335519543407372
  @DF-RHF Final Energy:  -313.53361725733095
    Total Energy =                       -313.5336172573310591
  @DF-RHF Final Energy:  -313.53362339628615
    Total Energy =                       -313.5336233962855204
  @DF-RHF Final Energy:  -313.53362632767835
    Total Energy =                       -313.5336263276784621
  @DF-RHF Final Energy:  -313.53362649211090
    Total Energy =                       -313.5336264921107841
  @DF-RHF Final Energy:  -313.53362677037120
    Total Energy =                       -313.5336267703711428
  @DF-RHF Final Energy:  -313.53362851082716
    Total Energy =                       -313.5336285108276684
  @DF-RHF Final Energy:  -313.53362626593884
    Total Energy =                       -313.5336262659390059
  @DF-RHF Final Energy:  -313.53362641780768
    Total Energy =                       -313.5336264178074543
  @DF-RHF Final Energy:  -313.53362650774164
    Total Energy =                       -313.5336265077418147
  @DF-RHF Final Energy:  -313.53362616663838
    Total Energy =                       -313.5336261666383280
  @DF-RHF Final Energy:  -313.53362614865330
    Total Energy =                       -313.5336261486532408
  @DF-RHF Final Energy:  -313.53362640013881
    Total Energy =                       -313.5336264001387576
  @DF-RHF Final Energy:  -313.53362616998072
    Total Energy =                       -313.5336261699804936
  @DF-RHF Final Energy:  -313.53362637152765
    Total Energy =                       -313.5336263715279301
  @DF-RHF Final Energy:  -313.53362647346535
    Total Energy =                       -313.5336264734655742
  @DF-RHF Final Energy:  -313.53362623593887
    Total Energy =                       -313.5336262359392663
  @DF-RHF Final Energy:  -313.53362621478362
    Total Energy =                       -313.5336262147833963
  @DF-RHF Final Energy:  -313.53362627646226
    Total Energy =                       -313.5336262764623143
  @DF-RHF Final Energy:  -313.53362625497755
    Total Energy =                       -313.5336262549774915
  @DF-RHF Final Energy:  -313.53362637239644
    Total Energy =                       -313.5336263723965544
	 Singles Energy            =      -0.0000000000000002 [Eh]
	 Same-Spin Energy          =      -0.3167070382158966 [Eh]
	 Opposite-Spin Energy      =      -1.1265125642593636 [Eh]
	 Correlation Energy        =      -1.4432196024752606 [Eh]
	 Total Energy              =    -314.9768459748717078 [Eh]
	 SCS Total Energy          =    -314.9910104622463223 [Eh]
  Charge       = 0
  Multiplicity = 1
  Basis Set: AUG-CC-PVTZ
  Basis Set:

    Orbital Energies (a.u.)
    -----------------------

    Doubly Occupied:

       1A    -11.212735     2A    -11.212734     3A    -11.210978
       4A    -11.210769     5A    -11.210376     6A    -11.209956
       7A    -11.206038     8A    -11.206038     9A     -1.093743
      10A     -1.057680    11A     -1.004401    12A     -0.953029
      13A     -0.884021    14A     -0.828318    15A     -0.784196
      16A     -0.763434    17A     -0.648559    18A     -0.613518
      19A     -0.608124    20A     -0.601905    21A     -0.583980
      22A     -0.560765    23A     -0.538595    24A     -0.533716
      25A     -0.519490    26A     -0.499877    27A     -0.486719
      28A     -0.470968    29A     -0.466615    30A     -0.462489
      31A     -0.451699    32A     -0.433433    33A     -0.429996

  @DF-RHF Final Energy:  -313.53362656238028

   => Energetics <=

    Nuclear Repulsion Energy =            397.0322525348502722
    One-Electron Energy =               -1209.2139699888357427
    Two-Electron Energy =                 498.6480908916050225
    DFT Exchange-Correlation Energy =       0.0000000000000000
    Empirical Dispersion Energy =           0.0000000000000000
    PCM Polarization Energy =               0.0000000000000000
    EFP Energy =                            0.0000000000000000
    Total Energy =                       -313.5336265623804479
  Basis Set:
    Molecular point group: c1
  Basis Set: AUG-CC-PVTZ
  Basis Set:
  Basis Set:
	 Reference Energy          =    -313.5336265623802774 [Eh]
	 Singles Energy            =      -0.0000000000000003 [Eh]
	 Same-Spin Energy          =      -0.3167070461189624 [Eh]
	 Opposite-Spin Energy      =      -1.1265123617400206 [Eh]
	 Correlation Energy        =      -1.4432194078589833 [Eh]
	 Total Energy              =    -314.9768459702392533 [Eh]

	 ================> DF-SCS-MP2 Energies <==================
	-----------------------------------------------------------
	 SCS Same-Spin Scale       =       0.3333333333333333 [-]
	 SCS Opposite-Spin Scale   =       1.2000000000000000 [-]
	 SCS Same-Spin Energy      =      -0.1055690153729875 [Eh]
	 SCS Opposite-Spin Energy  =      -1.3518148340880247 [Eh]
	 SCS Correlation Energy    =      -1.4573838494610125 [Eh]
	 SCS Total Energy          =    -314.9910104118412733 [Eh]
	-----------------------------------------------------------

  -Total Gradient:
     Atom            X                  Y                   Z
    ------   -----------------  -----------------  -----------------
       1        0.000000266450    -0.000000299878    -0.000000079913
       2       -0.000000476044     0.000000272133     0.000000023090
       3        0.000000146521    -0.000000120327     0.000000295829
       4        0.000000253806     0.000000069919    -0.000000236356
       5       -0.000000208485     0.000000200961     0.000000009345
       6       -0.000000104100     0.000000101169    -0.000000199549
       7        0.000000342188    -0.000000142366     0.000000025991
       8       -0.000000204592    -0.000000068024     0.000000188451
       9       -0.000000097237     0.000000107023     0.000000085750
      10       -0.000000186711     0.000000134321    -0.000000337368
      11        0.000000268207    -0.000000168680     0.000000019187
      12        0.000000060390    -0.000000069518     0.000000013678
      13        0.000000150378    -0.000000098737     0.000000199378
      14       -0.000000169683     0.000000085972    -0.000000055111
      15       -0.000000025624     0.000000068061    -0.000000024647
      16        0.000000052018    -0.000000392083    -0.000000007179
      17        0.000000049412     0.000000119720     0.000000336158
      18        0.000000247112     0.000000022594    -0.000000106637
      19       -0.000000027590    -0.000000182738    -0.000000377074
      20       -0.000000355408    -0.000000130164     0.000000262208
      21       -0.000000260549    -0.000000102483    -0.000000063536
      22        0.000000265171     0.000000141327    -0.000000217663
      23       -0.000000060889     0.000000138603     0.000000306826
      24        0.000000132241     0.000000152922     0.000000162748
      25       -0.000000036029    -0.000000101393    -0.000000280013
      26       -0.000000020952     0.000000261670     0.000000056407

  **** Optimization is complete! (in 24 steps) ****
    Final optimized geometry and variables:
    Molecular point group: c1

    Geometry (in Angstrom), charge = 0, multiplicity = 1:

    C           -3.244346040373    -0.877283019847    -0.187316424791
    H           -2.459335084858    -1.606561347490    -0.381285163836
    H           -3.715994678118    -0.640340928799    -1.141924336132
    H           -3.994461820579    -1.349610409569     0.447402339692
    C            3.244343578780     0.877284914105     0.187330422971
    H            3.715981745623     0.640338191661     1.141942719295
    H            2.459331501277     1.606564119295     0.381293570226
    H            3.994467201922     1.349613303306    -0.447378640684
    C           -2.689959054612     0.391336126301     0.455585670935
    H           -2.288833984713     0.162152744428     1.447167790767
    H           -3.517930530980     1.084026347272     0.617287908218
    C            2.689961962634    -0.391330913539    -0.455582567499
    H            2.288842367538    -0.162142467760    -1.447166272180
    H            3.517935702800    -1.084019343486    -0.617283556281
    C           -1.602234208024     1.079947976978    -0.382367253999
    H           -1.723166055249     2.163496739068    -0.319520140590
    H           -1.740452233483     0.817664457037    -1.436186758860
    C           -0.171307388382     0.741414444343     0.037585592354
    H           -0.010448177438     1.092072376129     1.062893024508
    H            0.517604723523     1.304922131358    -0.596292589574
    C            0.171307638636    -0.741420158074    -0.037597754486
    H           -0.517606469300    -1.304927436522     0.596278968503
    H            0.010450306151    -1.092078046968    -1.062905796196
    C            1.602233539682    -1.079949633588     0.382360871470
    H            1.740444854918    -0.817668865870     1.436182637161
    H            1.723170293523    -2.163498427762     0.319511478072

*** Psi4 exiting successfully. Buy a developer a beer!
