                              Psi4 1.0.0 Driver

  ==> Input File <==

--------------------------------------------------------------------------
memory 60 Gb

molecule molecule_87_psi {
0 1
C           -2.871805666773    -0.284463360927     1.084648327330
H           -2.272286609690    -0.010980168481     1.954429503659
H           -2.572515729951    -1.285794810096     0.775000849362
H           -3.914279102527    -0.333249812790     1.399065462655
C            3.533216114752     0.734311431425     0.258334412587
H            3.788539988189     1.770433079879     0.479124939946
H            3.958752939094     0.483838933188    -0.714341266912
H            4.016883264250     0.102340732089     1.004240333822
C           -2.688549185173     0.726383348289    -0.041916846600
H           -3.062511313915     1.699860819006     0.284136005426
H           -3.302397213546     0.429046279816    -0.896845365999
C            2.025212826850     0.513361592644     0.258496709891
H            1.611686340835     0.786742326456     1.233512684183
H            1.560246700316     1.177012123959    -0.473987917273
C           -1.241985717024     0.880161711673    -0.510403036441
H           -0.633953717295     1.250758774421     0.318500829513
H           -1.212562690807     1.651339373047    -1.283806612734
C           -0.636781055458    -0.423557565497    -1.055133466642
H            0.017475484823    -0.202647839673    -1.903260940589
H           -1.450089653151    -1.033516997788    -1.458572672993
C            0.167472226412    -1.240561996941    -0.031853039050
H           -0.222257447084    -1.060056235539     0.972857355415
H            0.034158601728    -2.307325363154    -0.227216612680
C            1.664326579746    -0.934356410908    -0.053361273161
H            2.174774706745    -1.584587874156     0.663746641040
H            2.062506465132    -1.191234333971    -1.040820796551
}

set globals {
  reference rhf
  g_convergence gau_verytight
  basis aug-cc-pvtz
  freeze_core true
  scf_type df
  mp_type df
}
optimize('mp2')
--------------------------------------------------------------------------

    Molecular point group: c1
  Charge       = 0
  Multiplicity = 1
  Basis Set: AUG-CC-PVTZ
  Basis Set:
  @DF-RHF Final Energy:  -313.53479598459887
    Total Energy =                       -313.5347959845993842
  Basis Set:
    Molecular point group: c1
  Basis Set: AUG-CC-PVTZ
  Basis Set:
  Basis Set:
	 Reference Energy          =    -313.5347959845988726 [Eh]
	 Singles Energy            =      -0.0000000000000001 [Eh]
	 Same-Spin Energy          =      -0.3169803364051840 [Eh]
	 Opposite-Spin Energy      =      -1.1267836517958303 [Eh]
	 Correlation Energy        =      -1.4437639882010143 [Eh]
	 Total Energy              =    -314.9785599727998715 [Eh]
	 SCS Total Energy          =    -314.9925964788889132 [Eh]
  Basis Set: AUG-CC-PVTZ
  Basis Set:
  @DF-RHF Final Energy:  -313.53479559288735
    Total Energy =                       -313.5347955928871215
  Basis Set:
  Basis Set: AUG-CC-PVTZ
  Basis Set:
  @DF-RHF Final Energy:  -313.53479566578267
    Total Energy =                       -313.5347956657825534
  @DF-RHF Final Energy:  -313.53479577490589
    Total Energy =                       -313.5347957749056604
  @DF-RHF Final Energy:  -313.53479585116287
    Total Energy =                       -313.5347958511632100
  @DF-RHF Final Energy:  -313.53479584592594
    Total Energy =                       -313.5347958459259416
  @DF-RHF Final Energy:  -313.53479590331699
    Total Energy =                       -313.5347959033168763
  @DF-RHF Final Energy:  -313.53479587336381
    Total Energy =                       -313.5347958733638052
  @DF-RHF Final Energy:  -313.53479590938201
    Total Energy =                       -313.5347959093815575
  @DF-RHF Final Energy:  -313.53479595611458
    Total Energy =                       -313.5347959561143512
  @DF-RHF Final Energy:  -313.53479592599251
    Total Energy =                       -313.5347959259926256
  @DF-RHF Final Energy:  -313.53479597024983
    Total Energy =                       -313.5347959702500020
  @DF-RHF Final Energy:  -313.53479590994704
    Total Energy =                       -313.5347959099468085
  @DF-RHF Final Energy:  -313.53479590101631
    Total Energy =                       -313.5347959010163095
  @DF-RHF Final Energy:  -313.53479591062660
    Total Energy =                       -313.5347959106265421
  @DF-RHF Final Energy:  -313.53479592435917
    Total Energy =                       -313.5347959243592300
  @DF-RHF Final Energy:  -313.53479595124293
    Total Energy =                       -313.5347959512429270
  @DF-RHF Final Energy:  -313.53479587409356
    Total Energy =                       -313.5347958740933336
  @DF-RHF Final Energy:  -313.53479587224274
    Total Energy =                       -313.5347958722426256
  @DF-RHF Final Energy:  -313.53479586157749
    Total Energy =                       -313.5347958615775497
  @DF-RHF Final Energy:  -313.53479590965799
    Total Energy =                       -313.5347959096579302
  @DF-RHF Final Energy:  -313.53479591096516
    Total Energy =                       -313.5347959109651583
  @DF-RHF Final Energy:  -313.53479584741774
    Total Energy =                       -313.5347958474181951
  @DF-RHF Final Energy:  -313.53479593036570
    Total Energy =                       -313.5347959303654761
  @DF-RHF Final Energy:  -313.53479595934323
    Total Energy =                       -313.5347959593431142
  @DF-RHF Final Energy:  -313.53479585896400
    Total Energy =                       -313.5347958589642303
  @DF-RHF Final Energy:  -313.53479587740082
    Total Energy =                       -313.5347958774005974
  @DF-RHF Final Energy:  -313.53479589772377
    Total Energy =                       -313.5347958977243934
  @DF-RHF Final Energy:  -313.53479592494051
    Total Energy =                       -313.5347959249407950
  @DF-RHF Final Energy:  -313.53479598079298
    Total Energy =                       -313.5347959807932625
  @DF-RHF Final Energy:  -313.53479596094826
    Total Energy =                       -313.5347959609488271
	 Singles Energy            =      -0.0000000000000001 [Eh]
	 Same-Spin Energy          =      -0.3169803222113005 [Eh]
	 Opposite-Spin Energy      =      -1.1267836899390864 [Eh]
	 Correlation Energy        =      -1.4437640121503867 [Eh]
	 Total Energy              =    -314.9785599730986405 [Eh]
	 SCS Total Energy          =    -314.9925964962789067 [Eh]
  Charge       = 0
  Multiplicity = 1
  Basis Set: AUG-CC-PVTZ
  Basis Set:

    Orbital Energies (a.u.)
    -----------------------

    Doubly Occupied:

       1A    -11.212727     2A    -11.212068     3A    -11.210566
       4A    -11.210335     5A    -11.209641     6A    -11.209443
       7A    -11.206922     8A    -11.206693     9A     -1.093774
      10A     -1.058858    11A     -1.005805    12A     -0.948579
      13A     -0.886675    14A     -0.829563    15A     -0.778686
      16A     -0.766171    17A     -0.647294    18A     -0.617477
      19A     -0.614965    20A     -0.599158    21A     -0.577584
      22A     -0.556631    23A     -0.547923    24A     -0.522506
      25A     -0.514936    26A     -0.510288    27A     -0.486960
      28A     -0.478727    29A     -0.463741    30A     -0.459491
      31A     -0.446266    32A     -0.435328    33A     -0.432203

  @DF-RHF Final Energy:  -313.53479596751896

   => Energetics <=

    Nuclear Repulsion Energy =            399.7074154055924851
    One-Electron Energy =               -1214.5684568971696535
    Two-Electron Energy =                 501.3262455240582653
    DFT Exchange-Correlation Energy =       0.0000000000000000
    Empirical Dispersion Energy =           0.0000000000000000
    PCM Polarization Energy =               0.0000000000000000
    EFP Energy =                            0.0000000000000000
    Total Energy =                       -313.5347959675189600
  Basis Set:
    Molecular point group: c1
  Basis Set: AUG-CC-PVTZ
  Basis Set:
  Basis Set:
	 Reference Energy          =    -313.5347959675189600 [Eh]
	 Singles Energy            =      -0.0000000000000001 [Eh]
	 Same-Spin Energy          =      -0.3169803261710069 [Eh]
	 Opposite-Spin Energy      =      -1.1267836779617775 [Eh]
	 Correlation Energy        =      -1.4437640041327844 [Eh]
	 Total Energy              =    -314.9785599716517481 [Eh]

	 ================> DF-SCS-MP2 Energies <==================
	-----------------------------------------------------------
	 SCS Same-Spin Scale       =       0.3333333333333333 [-]
	 SCS Opposite-Spin Scale   =       1.2000000000000000 [-]
	 SCS Same-Spin Energy      =      -0.1056601087236690 [Eh]
	 SCS Opposite-Spin Energy  =      -1.3521404135541328 [Eh]
	 SCS Correlation Energy    =      -1.4578005222778019 [Eh]
	 SCS Total Energy          =    -314.9925964897967674 [Eh]
	-----------------------------------------------------------

  -Total Gradient:
     Atom            X                  Y                   Z
    ------   -----------------  -----------------  -----------------
       1       -0.000000073410     0.000000353640    -0.000000311023
       2        0.000000360758     0.000000078328     0.000000541570
       3        0.000000186391    -0.000000581466    -0.000000121352
       4       -0.000000426689     0.000000062438     0.000000081434
       5       -0.000000079250    -0.000000243491    -0.000000055509
       6       -0.000000000893     0.000000052835     0.000000027639
       7       -0.000000006499     0.000000008199    -0.000000014263
       8       -0.000000023724    -0.000000028702     0.000000015161
       9        0.000000231233    -0.000000255785     0.000000367026
      10       -0.000000168564     0.000000522344     0.000000242682
      11       -0.000000328186    -0.000000148057    -0.000000497823
      12        0.000000044061     0.000000093779     0.000000042458
      13        0.000000044455    -0.000000037565     0.000000013823
      14        0.000000049043    -0.000000044298    -0.000000034458
      15       -0.000000929971    -0.000000208177    -0.000000281819
      16        0.000000668280     0.000000282187     0.000000349287
      17       -0.000000064729     0.000000176127    -0.000000300669
      18        0.000000499332     0.000000042899     0.000000223804
      19        0.000000147627    -0.000000030786    -0.000000047424
      20       -0.000000207876    -0.000000149310    -0.000000184132
      21       -0.000000352001     0.000000175689    -0.000000143176
      22        0.000000236252    -0.000000063107     0.000000106924
      23       -0.000000069342    -0.000000009614    -0.000000011897
      24        0.000000407028    -0.000000115092    -0.000000034217
      25       -0.000000075891     0.000000026658    -0.000000083802
      26       -0.000000067431     0.000000040325     0.000000109755

  **** Optimization is complete! (in 32 steps) ****
    Final optimized geometry and variables:
    Molecular point group: c1

    Geometry (in Angstrom), charge = 0, multiplicity = 1:

    C           -2.871794707315    -0.284472444652     1.084656106127
    H           -2.272263984502    -0.011000033985     1.954432711329
    H           -2.572515191188    -1.285803586877     0.774997648598
    H           -3.914265024996    -0.333254695810     1.399085176866
    C            3.533214666102     0.734309546593     0.258350000444
    H            3.788538978377     1.770428511677     0.479152226558
    H            3.958758215590     0.483845608935    -0.714324985694
    H            4.016876400420     0.102330843397     1.004252802655
    C           -2.688546098614     0.726382381364    -0.041902979014
    H           -3.062505378748     1.699857406618     0.284160324576
    H           -3.302402090876     0.429051806636    -0.896828110159
    C            2.025210898919     0.513361406233     0.258499192333
    H            1.611678046098     0.786734122177     1.233515038446
    H            1.560251214865     1.177020911698    -0.473981593710
    C           -1.241987080833     0.880164833414    -0.510400548003
    H           -0.633948942796     1.250761339778     0.318498999289
    H           -1.212572553892     1.651345474324    -1.283801458068
    C           -0.636785783069    -0.423549755972    -1.055143494135
    H            0.017468553356    -0.202633218949    -1.903271618591
    H           -1.450097208208    -1.033504271786    -1.458585789498
    C            0.167469819484    -1.240563307614    -0.031872476307
    H           -0.222261691332    -1.060069649949     0.972840455469
    H            0.034159250534    -2.307325485284    -0.227249505939
    C            1.664323885120    -0.934353351967    -0.053375569954
    H            2.174772071589    -1.584592484203     0.663726402341
    H            2.062506582560    -1.191220231914    -1.040837773124

*** Psi4 exiting successfully. Buy a developer a beer!
