                              Psi4 1.0.0 Driver

  ==> Input File <==

--------------------------------------------------------------------------
memory 60 Gb

molecule molecule_84_psi {
0 1
C           -3.221259285750     0.016540257186    -0.500283049106
H           -2.908969681462     1.060494605063    -0.475693206058
H           -3.837315603712    -0.166940060010     0.381919650663
H           -3.848150820580    -0.120180826212    -1.381091481466
C            3.466345787929    -0.576002855800    -0.570178367400
H            3.741672399598    -1.605087901275    -0.799695392554
H            4.030420844980    -0.266398118100     0.310787253493
H            3.783244362645     0.051760178677    -1.403892465022
C           -2.022027205742    -0.924332173516    -0.526471897198
H           -1.396103499446    -0.695445941028    -1.391852019333
H           -2.369515722976    -1.949934672610    -0.669893561365
C            1.968369133292    -0.434068845600    -0.326339473245
H            1.415806171053    -0.750084291506    -1.216015414930
H            1.671722155332    -1.104215084925     0.481637178466
C           -1.185300713846    -0.873941132457     0.751870408684
H           -0.341773019510    -1.556537319692     0.647441031203
H           -1.792136863521    -1.259575850319     1.577026844429
C           -0.699311478229     0.526749143632     1.141748671190
H           -0.088686188233     0.451048965542     2.047103257669
H           -1.573137151470     1.119027220794     1.422565716078
C            0.089258347162     1.296340085782     0.075617338245
H           -0.346074140800     1.120439837561    -0.911852773751
H           -0.029695803070     2.365630365766     0.267773018389
C            1.587722147015     1.000594853951     0.024354047220
H            2.045874083774     1.667347339887    -0.713117980637
H            2.035748015615     1.259069793688     0.989589794688
}

set globals {
  reference rhf
  g_convergence gau_verytight
  basis aug-cc-pvtz
  freeze_core true
  scf_type df
  mp_type df
}
optimize('mp2')
--------------------------------------------------------------------------

    Molecular point group: c1
  Charge       = 0
  Multiplicity = 1
  Basis Set: AUG-CC-PVTZ
  Basis Set:
  @DF-RHF Final Energy:  -313.53622512163827
    Total Energy =                       -313.5362251216380969
  Basis Set:
    Molecular point group: c1
  Basis Set: AUG-CC-PVTZ
  Basis Set:
  Basis Set:
	 Reference Energy          =    -313.5362251216382674 [Eh]
	 Singles Energy            =      -0.0000000000000001 [Eh]
	 Same-Spin Energy          =      -0.3171096596982811 [Eh]
	 Opposite-Spin Energy      =      -1.1266408278183446 [Eh]
	 Correlation Energy        =      -1.4437504875166258 [Eh]
	 Total Energy              =    -314.9799756091549057 [Eh]
	 SCS Total Energy          =    -314.9938973349197227 [Eh]
  Basis Set: AUG-CC-PVTZ
  Basis Set:
  @DF-RHF Final Energy:  -313.53622495717019
    Total Energy =                       -313.5362249571703614
  Basis Set:
  Basis Set: AUG-CC-PVTZ
  Basis Set:
  @DF-RHF Final Energy:  -313.53622497048582
    Total Energy =                       -313.5362249704857618
  @DF-RHF Final Energy:  -313.53622508542344
    Total Energy =                       -313.5362250854233821
  @DF-RHF Final Energy:  -313.53622505849989
    Total Energy =                       -313.5362250585000083
  @DF-RHF Final Energy:  -313.53622503159505
    Total Energy =                       -313.5362250315952792
  @DF-RHF Final Energy:  -313.53622484769636
    Total Energy =                       -313.5362248476963600
  @DF-RHF Final Energy:  -313.53622485974836
    Total Energy =                       -313.5362248597484154
  @DF-RHF Final Energy:  -313.53622497625406
    Total Energy =                       -313.5362249762541751
  @DF-RHF Final Energy:  -313.53622485258666
    Total Energy =                       -313.5362248525867699
  @DF-RHF Final Energy:  -313.53622494255148
    Total Energy =                       -313.5362249425517120
  @DF-RHF Final Energy:  -313.53622513374233
    Total Energy =                       -313.5362251337421071
  @DF-RHF Final Energy:  -313.53622512921493
    Total Energy =                       -313.5362251292148699
  @DF-RHF Final Energy:  -313.53622509087273
    Total Energy =                       -313.5362250908730744
	 Singles Energy            =      -0.0000000000000004 [Eh]
	 Same-Spin Energy          =      -0.3171096659138007 [Eh]
	 Opposite-Spin Energy      =      -1.1266408560203334 [Eh]
	 Correlation Energy        =      -1.4437505219341344 [Eh]
	 Total Energy              =    -314.9799756128068680 [Eh]
	 SCS Total Energy          =    -314.9938973400684290 [Eh]
  Charge       = 0
  Multiplicity = 1
  Basis Set: AUG-CC-PVTZ
  Basis Set:

    Orbital Energies (a.u.)
    -----------------------

    Doubly Occupied:

       1A    -11.212251     2A    -11.212025     3A    -11.210825
       4A    -11.210453     5A    -11.209812     6A    -11.209200
       7A    -11.207162     8A    -11.206623     9A     -1.093671
      10A     -1.058438    11A     -1.006206    12A     -0.948681
      13A     -0.888007    14A     -0.835060    15A     -0.787158
      16A     -0.746973    17A     -0.646727    18A     -0.633306
      19A     -0.617539    20A     -0.583331    21A     -0.578670
      22A     -0.562762    23A     -0.539817    24A     -0.529671
      25A     -0.521150    26A     -0.500071    27A     -0.493920
      28A     -0.478198    29A     -0.463748    30A     -0.460798
      31A     -0.443465    32A     -0.435554    33A     -0.431748

  @DF-RHF Final Energy:  -313.53622510805428

   => Energetics <=

    Nuclear Repulsion Energy =            401.4907919018612574
    One-Electron Energy =               -1218.1279907119010204
    Two-Electron Energy =                 503.1009737019855947
    DFT Exchange-Correlation Energy =       0.0000000000000000
    Empirical Dispersion Energy =           0.0000000000000000
    PCM Polarization Energy =               0.0000000000000000
    EFP Energy =                            0.0000000000000000
    Total Energy =                       -313.5362251080541682
  Basis Set:
    Molecular point group: c1
  Basis Set: AUG-CC-PVTZ
  Basis Set:
  Basis Set:
	 Reference Energy          =    -313.5362251080542819 [Eh]
	 Singles Energy            =      -0.0000000000000002 [Eh]
	 Same-Spin Energy          =      -0.3171096635591021 [Eh]
	 Opposite-Spin Energy      =      -1.1266408373910559 [Eh]
	 Correlation Energy        =      -1.4437505009501581 [Eh]
	 Total Energy              =    -314.9799756090044411 [Eh]

	 ================> DF-SCS-MP2 Energies <==================
	-----------------------------------------------------------
	 SCS Same-Spin Scale       =       0.3333333333333333 [-]
	 SCS Opposite-Spin Scale   =       1.2000000000000000 [-]
	 SCS Same-Spin Energy      =      -0.1057032211863674 [Eh]
	 SCS Opposite-Spin Energy  =      -1.3519690048692670 [Eh]
	 SCS Correlation Energy    =      -1.4576722260556345 [Eh]
	 SCS Total Energy          =    -314.9938973341099313 [Eh]
	-----------------------------------------------------------

  -Total Gradient:
     Atom            X                  Y                   Z
    ------   -----------------  -----------------  -----------------
       1       -0.000000511645     0.000000618999     0.000000063287
       2       -0.000000183269    -0.000000813065    -0.000000024292
       3        0.000000514045     0.000000043897    -0.000000652734
       4        0.000000328194     0.000000168944     0.000000602278
       5        0.000000471177     0.000000142226    -0.000000056215
       6       -0.000000123737     0.000000416173     0.000000063059
       7       -0.000000296055    -0.000000159818    -0.000000412767
       8       -0.000000137555    -0.000000276606     0.000000354007
       9        0.000000490881    -0.000000679089    -0.000000646082
      10       -0.000000643109    -0.000000198218     0.000000742575
      11        0.000000353555     0.000000695025    -0.000000041661
      12       -0.000000661064    -0.000000421395     0.000000049763
      13        0.000000171767     0.000000346863     0.000000500688
      14        0.000000187440     0.000000488747    -0.000000363922
      15        0.000000432011    -0.000000506960     0.000000487199
      16       -0.000001139766     0.000000856858     0.000000144494
      17        0.000000476254     0.000000040108    -0.000000456752
      18       -0.000000143562     0.000000264987     0.000000353595
      19       -0.000000426327     0.000000045638    -0.000000392493
      20        0.000000730398    -0.000000492393    -0.000000256661
      21       -0.000000457698     0.000000431289    -0.000000859255
      22        0.000000407475    -0.000000006943     0.000001020349
      23        0.000000006334    -0.000000480249    -0.000000290837
      24        0.000000857993     0.000000188595     0.000000093237
      25       -0.000000348822    -0.000000409431     0.000000603428
      26       -0.000000354913    -0.000000304179    -0.000000624291

  **** Optimization is complete! (in 15 steps) ****
    Final optimized geometry and variables:
    Molecular point group: c1

    Geometry (in Angstrom), charge = 0, multiplicity = 1:

    C           -3.221280889260     0.016550885256    -0.500163063933
    H           -2.908986401492     1.060504182146    -0.475582202725
    H           -3.837304539429    -0.166929736698     0.382062609303
    H           -3.848206340572    -0.120165585808    -1.380948226747
    C            3.466327088378    -0.576010251512    -0.570300386132
    H            3.741643939687    -1.605095271131    -0.799828936407
    H            4.030431945749    -0.266408641494     0.310647128525
    H            3.783198977749     0.051754112036    -1.404023555968
    C           -2.022052732361    -0.924325314576    -0.526399862130
    H           -1.396161414712    -0.695439701156    -1.391803864769
    H           -2.369550017975    -1.949926486510    -0.669809835517
    C            1.968358897343    -0.434073750932    -0.326411621533
    H            1.415765429670    -0.750084843886    -1.216070368198
    H            1.671737433219    -1.104221876535     0.481573026405
    C           -1.185276757706    -0.873938867307     0.751910172909
    H           -0.341755135008    -1.556536951673     0.647447236536
    H           -1.792081939655    -1.259573546091     1.577089532183
    C           -0.699268933548     0.526749151987     1.141771441365
    H           -0.088611671785     0.451046793808     2.047104634311
    H           -1.573083024671     1.119029731664     1.422619681750
    C            0.089265516071     1.296337427685     0.075612117590
    H           -0.346100355857     1.120435188012    -0.911843159257
    H           -0.029680977478     2.365628304020     0.267770219042
    C            1.587727223283     1.000589907060     0.024298919574
    H            2.045856551944     1.667343665106    -0.713186105611
    H            2.035785164112     1.259060638130     0.989521168953

*** Psi4 exiting successfully. Buy a developer a beer!
