                              Psi4 1.0.0 Driver

  ==> Input File <==

--------------------------------------------------------------------------
memory 30 Gb

molecule molecule_05_psi {
0 1
symmetry c1
    C            4.153193804405    -0.115073281010     0.116195190773
    H            4.514999445928     0.772776139934    -0.399261280776
    H            4.799267136072    -0.947606141629    -0.152589125707
    H            4.256371699813     0.057953602314     1.186050111711
    C           -4.153204381537     0.115123211762    -0.116025843325
    H           -4.256428800622    -0.057641327536    -1.185918992161
    H           -4.799261031154     0.947594509398     0.152989926642
    H           -4.514994555709    -0.772850260922     0.399228852269
    C            2.704615861074    -0.390753201384    -0.242384818375
    H            2.378308326388    -1.303398813652     0.254412106341
    H            2.617100842213    -0.569803304971    -1.315819781885
    C           -2.704609489957     0.390706420389     0.242561137460
    H           -2.378316533525     1.303469160906    -0.254030786547
    H           -2.617051092037     0.569501289845     1.316035230823
    C            1.792586512079     0.760551219660     0.141542047721
    H            2.198384059975     1.681882400942    -0.281421920760
    H            1.812449662475     0.884141212239     1.227496011305
    C            0.352657871206     0.593564308943    -0.316170937014
    H            0.330553286918     0.481146136964    -1.403676916065
    H           -0.196485731245     1.506169699246    -0.085392879055
    C           -0.352634890006    -0.593606994599     0.315943822628
    H            0.196459564111    -1.506219713432     0.085076086812
    H           -0.330444138842    -0.481245659799     1.403454934516
    C           -1.792604225705    -0.760515227102    -0.141671905278
    H           -1.812564460829    -0.883896826277    -1.227648800927
    H           -2.198360319722    -1.681929913596     0.281151835057
}

set globals {
  reference rhf
  g_convergence gau_verytight
  basis aug-cc-pvtz
  freeze_core true
  scf_type df
  mp_type df
}
optimize('mp2')
--------------------------------------------------------------------------

    Molecular point group: c1
  Charge       = 0
  Multiplicity = 1
  Basis Set: AUG-CC-PVTZ
  Basis Set:
  @DF-RHF Final Energy:  -313.54351292302471
    Total Energy =                       -313.5435129230245366
  Basis Set:
    Molecular point group: c1
  Basis Set: AUG-CC-PVTZ
  Basis Set:
  Basis Set:
	 Reference Energy          =    -313.5435129230247071 [Eh]
	 Singles Energy            =      -0.0000000000000006 [Eh]
	 Same-Spin Energy          =      -0.3158765627071721 [Eh]
	 Opposite-Spin Energy      =      -1.1238479404003143 [Eh]
	 Correlation Energy        =      -1.4397245031074870 [Eh]
	 Total Energy              =    -314.9832374261321775 [Eh]
	 SCS Total Energy          =    -314.9974226390741592 [Eh]
  Basis Set: AUG-CC-PVTZ
  Basis Set:
  @DF-RHF Final Energy:  -313.54388706695357
    Total Energy =                       -313.5438870669535163
  Basis Set:
  Basis Set: AUG-CC-PVTZ
  Basis Set:
  @DF-RHF Final Energy:  -313.54371477164443
    Total Energy =                       -313.5437147716442041
  @DF-RHF Final Energy:  -313.54377626055845
    Total Energy =                       -313.5437762605583316
  @DF-RHF Final Energy:  -313.54378752646670
    Total Energy =                       -313.5437875264665877
  @DF-RHF Final Energy:  -313.54378718548963
    Total Energy =                       -313.5437871854898049
  @DF-RHF Final Energy:  -313.54378705299797
    Total Energy =                       -313.5437870529983115
  @DF-RHF Final Energy:  -313.54378715458557
    Total Energy =                       -313.5437871545856297
  @DF-RHF Final Energy:  -313.54378693056248
    Total Energy =                       -313.5437869305619643
	 Singles Energy            =      -0.0000000000000002 [Eh]
	 Same-Spin Energy          =      -0.3154836600608095 [Eh]
	 Opposite-Spin Energy      =      -1.1242374964453972 [Eh]
	 Correlation Energy        =      -1.4397211565062069 [Eh]
	 Total Energy              =    -314.9835080870686852 [Eh]
	 SCS Total Energy          =    -314.9980331463171979 [Eh]
  Charge       = 0
  Multiplicity = 1
  Basis Set: AUG-CC-PVTZ
  Basis Set:

    Orbital Energies (a.u.)
    -----------------------

    Doubly Occupied:

       1A    -11.211793     2A    -11.211793     3A    -11.210519
       4A    -11.210422     5A    -11.209865     6A    -11.209338
       7A    -11.206866     8A    -11.206866     9A     -1.093771
      10A     -1.060881    11A     -1.009730    12A     -0.950103
      13A     -0.873767    14A     -0.832058    15A     -0.790610
      16A     -0.762147    17A     -0.633591    18A     -0.633212
      19A     -0.617306    20A     -0.591604    21A     -0.578585
      22A     -0.553758    23A     -0.545205    24A     -0.541044
      25A     -0.510533    26A     -0.503643    27A     -0.478491
      28A     -0.477065    29A     -0.468510    30A     -0.458105
      31A     -0.454034    32A     -0.438944    33A     -0.432961

  @DF-RHF Final Energy:  -313.54378710468421

   => Energetics <=

    Nuclear Repulsion Energy =            385.1279830238522095
    One-Electron Energy =               -1185.4093012700400323
    Two-Electron Energy =                 486.7375311415032684
    DFT Exchange-Correlation Energy =       0.0000000000000000
    Empirical Dispersion Energy =           0.0000000000000000
    PCM Polarization Energy =               0.0000000000000000
    EFP Energy =                            0.0000000000000000
    Total Energy =                       -313.5437871046844975
  Basis Set:
    Molecular point group: c1
  Basis Set: AUG-CC-PVTZ
  Basis Set:
  Basis Set:
	 Reference Energy          =    -313.5437871046842133 [Eh]
	 Singles Energy            =      -0.0000000000000001 [Eh]
	 Same-Spin Energy          =      -0.3154836783943202 [Eh]
	 Opposite-Spin Energy      =      -1.1242373040634013 [Eh]
	 Correlation Energy        =      -1.4397209824577215 [Eh]
	 Total Energy              =    -314.9835080871419564 [Eh]

	 ================> DF-SCS-MP2 Energies <==================
	-----------------------------------------------------------
	 SCS Same-Spin Scale       =       0.3333333333333333 [-]
	 SCS Opposite-Spin Scale   =       1.2000000000000000 [-]
	 SCS Same-Spin Energy      =      -0.1051612261314401 [Eh]
	 SCS Opposite-Spin Energy  =      -1.3490847648760815 [Eh]
	 SCS Correlation Energy    =      -1.4542459910075216 [Eh]
	 SCS Total Energy          =    -314.9980330956917101 [Eh]
	-----------------------------------------------------------

  -Total Gradient:
     Atom            X                  Y                   Z
    ------   -----------------  -----------------  -----------------
       1        0.000000116007    -0.000000053488     0.000000011058
       2        0.000000000717    -0.000000032055     0.000000029068
       3       -0.000000055383     0.000000080615     0.000000023185
       4       -0.000000020201    -0.000000007351    -0.000000057299
       5       -0.000000039383    -0.000000057213    -0.000000025760
       6       -0.000000002455     0.000000018282     0.000000098014
       7        0.000000077474    -0.000000091019    -0.000000033147
       8        0.000000033303     0.000000095913    -0.000000059847
       9       -0.000000143622     0.000000073118     0.000000108410
      10        0.000000032566    -0.000000030688    -0.000000041941
      11        0.000000030873    -0.000000035841     0.000000039962
      12        0.000000232585     0.000000172548    -0.000000022927
      13       -0.000000065397    -0.000000097976     0.000000093234
      14        0.000000007164    -0.000000062182    -0.000000217054
      15        0.000000134576    -0.000000125482    -0.000000194480
      16        0.000000049507     0.000000081177     0.000000019682
      17        0.000000062148     0.000000002630     0.000000106810
      18       -0.000000057641    -0.000000122252     0.000000323325
      19       -0.000000026335    -0.000000001097    -0.000000257609
      20       -0.000000065733     0.000000204789    -0.000000018007
      21        0.000000023433     0.000000162255    -0.000000207022
      22       -0.000000056199    -0.000000138776     0.000000054847
      23       -0.000000020029    -0.000000050844     0.000000093062
      24       -0.000000247581    -0.000000111935     0.000000078211
      25       -0.000000089422    -0.000000002643     0.000000196621
      26        0.000000089035     0.000000129513    -0.000000140396

  **** Optimization is complete! (in 10 steps) ****
    Final optimized geometry and variables:
    Molecular point group: c1

    Geometry (in Angstrom), charge = 0, multiplicity = 1:

    C            4.173290238529    -0.117235264765     0.126180169825
    H            4.543416564889     0.784290329623    -0.363602285635
    H            4.827023570646    -0.943459426696    -0.152137838390
    H            4.260725833460     0.031188931823     1.203288571817
    C           -4.173290438737     0.117234913726    -0.126178590694
    H           -4.260724703787    -0.031179590246    -1.203288427133
    H           -4.827024806183     0.943455978423     0.152146199994
    H           -4.543416485120    -0.784295471068     0.363595290428
    C            2.725246783732    -0.388768845052    -0.263932376801
    H            2.390688605550    -1.313018405727     0.210506161305
    H            2.656778673307    -0.549551262404    -1.343743910215
    C           -2.725247628694     0.388766356227     0.263938265035
    H           -2.390689652741     1.313020313639    -0.210491923954
    H           -2.656780703302     0.549539543456     1.343751270618
    C            1.803507217674     0.761668645664     0.125719510490
    H            2.204577468263     1.686497095888    -0.299470199954
    H            1.826041128868     0.887446104753     1.213353202296
    C            0.356519015698     0.587352288033    -0.331187879701
    H            0.335053686487     0.451491214456    -1.418017364793
    H           -0.190736325304     1.508942330598    -0.122273237776
    C           -0.356518364768    -0.587351139653     0.331183613652
    H            0.190736601918    -1.508941287620     0.122267502810
    H           -0.335052262898    -0.451490688566     1.418013326764
    C           -1.803506831569    -0.761666941445    -0.125722736217
    H           -1.826042046891    -0.887436886439    -1.213357262929
    H           -2.204575050292    -1.686498975553     0.299461215412

*** Psi4 exiting successfully. Buy a developer a beer!
