                              Psi4 1.0.0 Driver

  ==> Input File <==

--------------------------------------------------------------------------
memory 30 Gb

molecule molecule_14_psi {
0 1
symmetry c1
    C            3.009250793810     0.826185922777    -0.723476752741
    H            3.338791289953     1.802483955685    -1.071919001269
    H            2.560609567806     0.307732821610    -1.567465185046
    H            3.890730728347     0.263432222150    -0.418096071294
    C           -3.624136535479     0.695103137263     0.345197492188
    H           -4.492158087583     1.030619855991    -0.217738992556
    H           -3.272331522907     1.529414610709     0.949370111807
    H           -3.947636872091    -0.092389854101     1.023547556867
    C            2.032234489616     0.956227952756     0.431852610094
    H            1.141133104077     1.489150589162     0.098303714956
    H            2.478344905022     1.569136911850     1.215514494828
    C           -2.522173860477     0.194049936366    -0.569275752060
    H           -2.897347469137    -0.623557779469    -1.186864530068
    H           -2.221997055328     0.988210761175    -1.255135474884
    C            1.635724931155    -0.385224771623     1.029127290159
    H            0.948783924854    -0.220572025079     1.859615558676
    H            2.523492084370    -0.857887877603     1.454221605204
    C            1.001980263041    -1.345286169351     0.030724632965
    H            0.679460807107    -2.241919085120     0.563667039101
    H            1.753467892919    -1.671669875389    -0.688868372594
    C           -0.188381579480    -0.763349061777    -0.715856941204
    H            0.135851456382     0.065748704658    -1.348112457866
    H           -0.587576494041    -1.522408668145    -1.391665272024
    C           -1.302367891336    -0.282927484636     0.195588893644
    H           -1.590800388305    -1.094029876538     0.870116619452
    H           -0.942459837181     0.531347531113     0.827156048459
}

set globals {
  reference rhf
  g_convergence gau_verytight
  basis aug-cc-pvtz
  freeze_core true
  scf_type df
  mp_type df
}
optimize('mp2')
--------------------------------------------------------------------------

    Molecular point group: c1
  Charge       = 0
  Multiplicity = 1
  Basis Set: AUG-CC-PVTZ
  Basis Set:
  @DF-RHF Final Energy:  -313.54120352046613
    Total Energy =                       -313.5412035204665244
  Basis Set:
    Molecular point group: c1
  Basis Set: AUG-CC-PVTZ
  Basis Set:
  Basis Set:
	 Reference Energy          =    -313.5412035204661265 [Eh]
	 Singles Energy            =      -0.0000000000000004 [Eh]
	 Same-Spin Energy          =      -0.3172721753724022 [Eh]
	 Opposite-Spin Energy      =      -1.1255675626989845 [Eh]
	 Correlation Energy        =      -1.4428397380713871 [Eh]
	 Total Energy              =    -314.9840432585374970 [Eh]
	 SCS Total Energy          =    -314.9976419874956832 [Eh]
  Basis Set: AUG-CC-PVTZ
  Basis Set:
  @DF-RHF Final Energy:  -313.54154427924442
    Total Energy =                       -313.5415442792446470
  Basis Set:
  Basis Set: AUG-CC-PVTZ
  Basis Set:
  @DF-RHF Final Energy:  -313.54150443994371
    Total Energy =                       -313.5415044399440490
  @DF-RHF Final Energy:  -313.54165727490096
    Total Energy =                       -313.5416572749009561
  @DF-RHF Final Energy:  -313.54174896375298
    Total Energy =                       -313.5417489637531503
  @DF-RHF Final Energy:  -313.54173796427966
    Total Energy =                       -313.5417379642796050
  @DF-RHF Final Energy:  -313.54173714795752
    Total Energy =                       -313.5417371479576332
  @DF-RHF Final Energy:  -313.54173671234361
    Total Energy =                       -313.5417367123433223
  @DF-RHF Final Energy:  -313.54173654083598
    Total Energy =                       -313.5417365408357000
  @DF-RHF Final Energy:  -313.54173679119674
    Total Energy =                       -313.5417367911967403
  @DF-RHF Final Energy:  -313.54173678324617
    Total Energy =                       -313.5417367832458808
  @DF-RHF Final Energy:  -313.54173722244354
    Total Energy =                       -313.5417372224432029
  @DF-RHF Final Energy:  -313.54173661850865
    Total Energy =                       -313.5417366185087644
  @DF-RHF Final Energy:  -313.54173668241782
    Total Energy =                       -313.5417366824174792
  @DF-RHF Final Energy:  -313.54173681483542
    Total Energy =                       -313.5417368148352466
  @DF-RHF Final Energy:  -313.54173657764363
    Total Energy =                       -313.5417365776441443
  @DF-RHF Final Energy:  -313.54173702713410
    Total Energy =                       -313.5417370271338768
  @DF-RHF Final Energy:  -313.54173622124853
    Total Energy =                       -313.5417362212486978
  @DF-RHF Final Energy:  -313.54173642359308
    Total Energy =                       -313.5417364235931359
  @DF-RHF Final Energy:  -313.54173672441061
    Total Energy =                       -313.5417367244110096
  @DF-RHF Final Energy:  -313.54173700607441
    Total Energy =                       -313.5417370060741291
  @DF-RHF Final Energy:  -313.54173652421537
    Total Energy =                       -313.5417365242153096
  @DF-RHF Final Energy:  -313.54173727344210
    Total Energy =                       -313.5417372734417540
  @DF-RHF Final Energy:  -313.54173701724670
    Total Energy =                       -313.5417370172467031
  @DF-RHF Final Energy:  -313.54173656239880
    Total Energy =                       -313.5417365623985120
  @DF-RHF Final Energy:  -313.54173646199047
    Total Energy =                       -313.5417364619904106
	 Singles Energy            =      -0.0000000000000001 [Eh]
	 Same-Spin Energy          =      -0.3167665514518656 [Eh]
	 Opposite-Spin Energy      =      -1.1258098694176146 [Eh]
	 Correlation Energy        =      -1.4425764208694805 [Eh]
	 Total Energy              =    -314.9843128828599674 [Eh]
	 SCS Total Energy          =    -314.9982971557755604 [Eh]
  Charge       = 0
  Multiplicity = 1
  Basis Set: AUG-CC-PVTZ
  Basis Set:

    Orbital Energies (a.u.)
    -----------------------

    Doubly Occupied:

       1A    -11.212640     2A    -11.212416     3A    -11.210323
       4A    -11.209990     5A    -11.209618     6A    -11.209312
       7A    -11.207230     8A    -11.206902     9A     -1.095967
      10A     -1.059546    11A     -1.007571    12A     -0.946170
      13A     -0.889641    14A     -0.828002    15A     -0.792333
      16A     -0.747182    17A     -0.655017    18A     -0.629244
      19A     -0.619129    20A     -0.583485    21A     -0.570205
      22A     -0.565494    23A     -0.544853    24A     -0.531796
      25A     -0.519063    26A     -0.495758    27A     -0.490516
      28A     -0.474053    29A     -0.469709    30A     -0.462496
      31A     -0.444683    32A     -0.439054    33A     -0.434205

  @DF-RHF Final Energy:  -313.54173656970045

   => Energetics <=

    Nuclear Repulsion Energy =            397.2314652137965822
    One-Electron Energy =               -1209.5991976592576975
    Two-Electron Energy =                 498.8259958757603840
    DFT Exchange-Correlation Energy =       0.0000000000000000
    Empirical Dispersion Energy =           0.0000000000000000
    PCM Polarization Energy =               0.0000000000000000
    EFP Energy =                            0.0000000000000000
    Total Energy =                       -313.5417365697007313
  Basis Set:
    Molecular point group: c1
  Basis Set: AUG-CC-PVTZ
  Basis Set:
  Basis Set:
	 Reference Energy          =    -313.5417365697004470 [Eh]
	 Singles Energy            =      -0.0000000000000000 [Eh]
	 Same-Spin Energy          =      -0.3167665873478913 [Eh]
	 Opposite-Spin Energy      =      -1.1258097210813802 [Eh]
	 Correlation Energy        =      -1.4425763084292715 [Eh]
	 Total Energy              =    -314.9843128781297423 [Eh]

	 ================> DF-SCS-MP2 Energies <==================
	-----------------------------------------------------------
	 SCS Same-Spin Scale       =       0.3333333333333333 [-]
	 SCS Opposite-Spin Scale   =       1.2000000000000000 [-]
	 SCS Same-Spin Energy      =      -0.1055888624492971 [Eh]
	 SCS Opposite-Spin Energy  =      -1.3509716652976562 [Eh]
	 SCS Correlation Energy    =      -1.4565605277469533 [Eh]
	 SCS Total Energy          =    -314.9982970974473915 [Eh]
	-----------------------------------------------------------

  -Total Gradient:
     Atom            X                  Y                   Z
    ------   -----------------  -----------------  -----------------
       1       -0.000000086894    -0.000000022367    -0.000000002015
       2       -0.000000039270    -0.000000064443     0.000000051267
       3        0.000000048658    -0.000000010781     0.000000024192
       4       -0.000000076118     0.000000043432    -0.000000000563
       5       -0.000000100623    -0.000000046212     0.000000048678
       6        0.000000078996    -0.000000023577     0.000000082118
       7       -0.000000029168    -0.000000068033    -0.000000038017
       8        0.000000033782     0.000000106167    -0.000000081602
       9        0.000000214706     0.000000021178     0.000000051190
      10        0.000000024918     0.000000038818    -0.000000021583
      11       -0.000000045353    -0.000000033693     0.000000060844
      12       -0.000000058250    -0.000000033375    -0.000000172214
      13        0.000000116972     0.000000179806     0.000000133949
      14       -0.000000007003    -0.000000176708     0.000000133479
      15        0.000000094641     0.000000256174    -0.000000033413
      16       -0.000000064364     0.000000004408     0.000000130719
      17        0.000000084595    -0.000000029828     0.000000048441
      18       -0.000000086494    -0.000000422738    -0.000000152971
      19        0.000000150265     0.000000066197    -0.000000038399
      20       -0.000000143907     0.000000089533     0.000000085741
      21       -0.000000289926    -0.000000112434    -0.000000416754
      22       -0.000000196151    -0.000000233652     0.000000129213
      23        0.000000119278     0.000000329697     0.000000199698
      24        0.000000252932     0.000000161806     0.000000210653
      25        0.000000076508     0.000000146332    -0.000000299802
      26       -0.000000072731    -0.000000165705    -0.000000132850

  **** Optimization is complete! (in 27 steps) ****
    Final optimized geometry and variables:
    Molecular point group: c1

    Geometry (in Angstrom), charge = 0, multiplicity = 1:

    C            3.052881876156     0.821162988451    -0.728464116075
    H            3.387773039247     1.794610191829    -1.085952992864
    H            2.610676062938     0.293328011523    -1.573232014736
    H            3.933032442584     0.259842178345    -0.409971559373
    C           -3.660004447083     0.674379507304     0.350897132665
    H           -4.526703666257     1.018769854714    -0.212795754650
    H           -3.317718522226     1.499166636900     0.977193863694
    H           -3.987162795895    -0.129730886897     1.011235475765
    C            2.061866735178     0.966543938165     0.421102925513
    H            1.176371491669     1.505641010986     0.075096861927
    H            2.506168397930     1.583664605554     1.205202296836
    C           -2.543504394307     0.196227275697    -0.569018208362
    H           -2.910400760295    -0.611762398287    -1.207521719477
    H           -2.243334595810     1.007292429943    -1.238160307735
    C            1.647923482904    -0.372831965336     1.028420314979
    H            0.962411544872    -0.193324208009     1.859858301352
    H            2.531675481126    -0.852806651370     1.458989474060
    C            1.002107209203    -1.339330836533     0.033571378641
    H            0.682559152176    -2.235389561525     0.573334193619
    H            1.749605601053    -1.671040819709    -0.690944676740
    C           -0.197352242320    -0.759084705914    -0.713770791268
    H            0.122925338082     0.076440281925    -1.343376994249
    H           -0.590325999209    -1.519061873044    -1.395352545820
    C           -1.322318984069    -0.290483571390     0.201139435606
    H           -1.615401755831    -1.111582186780     0.864452795322
    H           -0.967465428557     0.517316286120     0.847633194049

*** Psi4 exiting successfully. Buy a developer a beer!
