                              Psi4 1.0.0 Driver

  ==> Input File <==

--------------------------------------------------------------------------
memory 30 Gb

molecule molecule_67_psi {
0 1
C           -2.053296943730     1.658218373441    -0.132295243561
H           -1.020597101515     1.819811020546    -0.440965375432
H           -2.324930955191     2.465137912137     0.548199149062
H           -2.679254255929     1.744811713701    -1.021973877909
C            2.495899933790     0.656162937023    -1.016634860465
H            3.491067414173     0.946041250961    -1.353837377129
H            1.813355286962     1.476207156007    -1.246706411623
H            2.187555363853    -0.209553317696    -1.602465774714
C           -2.243443731071     0.293969023757     0.521921919638
H           -3.284360381950     0.196731805405     0.838962856209
H           -1.642169857335     0.226200208068     1.431716403518
C            2.494898212837     0.349128797320     0.476836808095
H            3.179042825913    -0.481010323550     0.674395261384
H            2.889054352589     1.210943768049     1.020727584692
C           -1.906677357826    -0.868857726885    -0.409915061890
H           -2.510520329221    -0.773689643573    -1.317799725275
H           -2.207409221463    -1.806792433987     0.066118843271
C           -0.431659819971    -0.985802597373    -0.799232599307
H           -0.112118883179    -0.085537552360    -1.326629473282
H           -0.340862729636    -1.804595830430    -1.517087480116
C            0.494650215372    -1.253686554020     0.397806575778
H           -0.076055890798    -1.807844729902     1.148528755157
H            1.307524414070    -1.919119230867     0.092364894451
C            1.120365711888    -0.006912668664     1.042446415852
H            0.452330346536     0.849147337165     0.924897820565
H            1.226788401868    -0.168224733851     2.117887200527
}

set globals {
  reference rhf
  g_convergence gau_verytight
  basis aug-cc-pvtz
  freeze_core true
  scf_type df
  mp_type df
}
optimize('mp2')
--------------------------------------------------------------------------

    Molecular point group: c1
  Charge       = 0
  Multiplicity = 1
  Basis Set: AUG-CC-PVTZ
  Basis Set:
  @DF-RHF Final Energy:  -313.53229730027300
    Total Energy =                       -313.5322973002730009
  Basis Set:
    Molecular point group: c1
  Basis Set: AUG-CC-PVTZ
  Basis Set:
  Basis Set:
	 Reference Energy          =    -313.5322973002730009 [Eh]
	 Singles Energy            =      -0.0000000000000004 [Eh]
	 Same-Spin Energy          =      -0.3179282070517668 [Eh]
	 Opposite-Spin Energy      =      -1.1279881706898423 [Eh]
	 Correlation Energy        =      -1.4459163777416095 [Eh]
	 Total Energy              =    -314.9782136780145834 [Eh]
	 SCS Total Energy          =    -314.9918591741180762 [Eh]
  Basis Set: AUG-CC-PVTZ
  Basis Set:
  @DF-RHF Final Energy:  -313.53229852119568
    Total Energy =                       -313.5322985211958553
  Basis Set:
  Basis Set: AUG-CC-PVTZ
  Basis Set:
  @DF-RHF Final Energy:  -313.53229769299998
    Total Energy =                       -313.5322976929998049
  @DF-RHF Final Energy:  -313.53229743539720
    Total Energy =                       -313.5322974353970267
  @DF-RHF Final Energy:  -313.53229738575089
    Total Energy =                       -313.5322973857506668
  @DF-RHF Final Energy:  -313.53229738384397
    Total Energy =                       -313.5322973838439111
  @DF-RHF Final Energy:  -313.53229735469580
    Total Energy =                       -313.5322973546959133
  @DF-RHF Final Energy:  -313.53229755708077
    Total Energy =                       -313.5322975570807671
  @DF-RHF Final Energy:  -313.53229750643357
    Total Energy =                       -313.5322975064336219
  @DF-RHF Final Energy:  -313.53229736022024
    Total Energy =                       -313.5322973602203547
  @DF-RHF Final Energy:  -313.53229742457955
    Total Energy =                       -313.5322974245796672
  @DF-RHF Final Energy:  -313.53229741198288
    Total Energy =                       -313.5322974119831088
  @DF-RHF Final Energy:  -313.53229729139582
    Total Energy =                       -313.5322972913958210
  @DF-RHF Final Energy:  -313.53229730672632
    Total Energy =                       -313.5322973067263206
  @DF-RHF Final Energy:  -313.53229734477412
    Total Energy =                       -313.5322973447740651
  @DF-RHF Final Energy:  -313.53229735904432
    Total Energy =                       -313.5322973590446054
  @DF-RHF Final Energy:  -313.53229737361511
    Total Energy =                       -313.5322973736151653
  @DF-RHF Final Energy:  -313.53229730134183
    Total Energy =                       -313.5322973013420551
  @DF-RHF Final Energy:  -313.53229731786752
    Total Energy =                       -313.5322973178676875
  @DF-RHF Final Energy:  -313.53229729155623
    Total Energy =                       -313.5322972915563469
  @DF-RHF Final Energy:  -313.53229737246397
    Total Energy =                       -313.5322973724640292
  @DF-RHF Final Energy:  -313.53229735996126
    Total Energy =                       -313.5322973599611487
  @DF-RHF Final Energy:  -313.53229766377905
    Total Energy =                       -313.5322976637792181
  @DF-RHF Final Energy:  -313.53229738137537
    Total Energy =                       -313.5322973813750878
  @DF-RHF Final Energy:  -313.53229736643124
    Total Energy =                       -313.5322973664309529
  @DF-RHF Final Energy:  -313.53229738277076
    Total Energy =                       -313.5322973827708211
  @DF-RHF Final Energy:  -313.53229749215797
    Total Energy =                       -313.5322974921580226
  @DF-RHF Final Energy:  -313.53229742488594
    Total Energy =                       -313.5322974248858827
  @DF-RHF Final Energy:  -313.53229771748391
    Total Energy =                       -313.5322977174838570
  @DF-RHF Final Energy:  -313.53229754008674
    Total Energy =                       -313.5322975400869154
  @DF-RHF Final Energy:  -313.53229739210269
    Total Energy =                       -313.5322973921032599
  @DF-RHF Final Energy:  -313.53229732576716
    Total Energy =                       -313.5322973257674448
  @DF-RHF Final Energy:  -313.53229738814287
    Total Energy =                       -313.5322973881427515
  @DF-RHF Final Energy:  -313.53229751150639
    Total Energy =                       -313.5322975115065560
  @DF-RHF Final Energy:  -313.53229758488504
    Total Energy =                       -313.5322975848852707
  @DF-RHF Final Energy:  -313.53229749653650
    Total Energy =                       -313.5322974965360459
  @DF-RHF Final Energy:  -313.53229834268751
    Total Energy =                       -313.5322983426872838
  @DF-RHF Final Energy:  -313.53229749181048
    Total Energy =                       -313.5322974918102545
  @DF-RHF Final Energy:  -313.53229738919725
    Total Energy =                       -313.5322973891975948
	 Singles Energy            =      -0.0000000000000002 [Eh]
	 Same-Spin Energy          =      -0.3179282135343590 [Eh]
	 Opposite-Spin Energy      =      -1.1279880723550255 [Eh]
	 Correlation Energy        =      -1.4459162858893848 [Eh]
	 Total Energy              =    -314.9782136750866357 [Eh]
	 SCS Total Energy          =    -314.9918591472014100 [Eh]
  Charge       = 0
  Multiplicity = 1
  Basis Set: AUG-CC-PVTZ
  Basis Set:

    Orbital Energies (a.u.)
    -----------------------

    Doubly Occupied:

       1A    -11.213016     2A    -11.212175     3A    -11.210595
       4A    -11.210442     5A    -11.209737     6A    -11.208907
       7A    -11.207266     8A    -11.207161     9A     -1.093978
      10A     -1.058194    11A     -1.003633    12A     -0.949208
      13A     -0.890708    14A     -0.834940    15A     -0.778347
      16A     -0.756532    17A     -0.647490    18A     -0.626955
      19A     -0.609624    20A     -0.604228    21A     -0.572869
      22A     -0.552019    23A     -0.544631    24A     -0.537591
      25A     -0.515582    26A     -0.509926    27A     -0.487768
      28A     -0.474024    29A     -0.463065    30A     -0.461391
      31A     -0.444032    32A     -0.435566    33A     -0.431298

  @DF-RHF Final Energy:  -313.53229743381360

   => Energetics <=

    Nuclear Repulsion Energy =            408.4082641651692711
    One-Electron Energy =               -1231.9553249752373176
    Two-Electron Energy =                 510.0147633762545638
    DFT Exchange-Correlation Energy =       0.0000000000000000
    Empirical Dispersion Energy =           0.0000000000000000
    PCM Polarization Energy =               0.0000000000000000
    EFP Energy =                            0.0000000000000000
    Total Energy =                       -313.5322974338134827
  Basis Set:
    Molecular point group: c1
  Basis Set: AUG-CC-PVTZ
  Basis Set:
  Basis Set:
	 Reference Energy          =    -313.5322974338135964 [Eh]
	 Singles Energy            =      -0.0000000000000005 [Eh]
	 Same-Spin Energy          =      -0.3179282036043005 [Eh]
	 Opposite-Spin Energy      =      -1.1279880388767154 [Eh]
	 Correlation Energy        =      -1.4459162424810164 [Eh]
	 Total Energy              =    -314.9782136762946152 [Eh]

	 ================> DF-SCS-MP2 Energies <==================
	-----------------------------------------------------------
	 SCS Same-Spin Scale       =       0.3333333333333333 [-]
	 SCS Opposite-Spin Scale   =       1.2000000000000000 [-]
	 SCS Same-Spin Energy      =      -0.1059760678681002 [Eh]
	 SCS Opposite-Spin Energy  =      -1.3535856466520584 [Eh]
	 SCS Correlation Energy    =      -1.4595617145201589 [Eh]
	 SCS Total Energy          =    -314.9918591483337309 [Eh]
	-----------------------------------------------------------

  -Total Gradient:
     Atom            X                  Y                   Z
    ------   -----------------  -----------------  -----------------
       1        0.000000054306     0.000000240315    -0.000000045886
       2       -0.000000251339    -0.000000029291     0.000000092218
       3        0.000000059684    -0.000000182965    -0.000000133174
       4        0.000000127765    -0.000000033719     0.000000186045
       5       -0.000000081379     0.000000041883    -0.000000179699
       6       -0.000000132524    -0.000000015265     0.000000057634
       7        0.000000127375    -0.000000151857     0.000000060739
       8        0.000000071195     0.000000148572     0.000000089644
       9       -0.000000161718    -0.000000085710     0.000000105738
      10        0.000000155376     0.000000008232     0.000000004924
      11       -0.000000077694     0.000000020657    -0.000000159159
      12        0.000000166324     0.000000065682     0.000000101872
      13       -0.000000113603     0.000000080283    -0.000000030931
      14       -0.000000065865    -0.000000150425    -0.000000066021
      15       -0.000000236601    -0.000000205418    -0.000000138089
      16        0.000000131394    -0.000000026313     0.000000231644
      17        0.000000068570     0.000000209273    -0.000000104267
      18        0.000000261225    -0.000000016477    -0.000000097107
      19       -0.000000248061    -0.000000187495    -0.000000010584
      20        0.000000029871     0.000000190038     0.000000064435
      21       -0.000000082642     0.000000101351    -0.000000071528
      22       -0.000000060988     0.000000001841    -0.000000049397
      23        0.000000093169     0.000000021637     0.000000069227
      24        0.000000120839    -0.000000061713     0.000000110085
      25        0.000000053613     0.000000041036    -0.000000032987
      26       -0.000000008296    -0.000000024152    -0.000000055371

  **** Optimization is complete! (in 40 steps) ****
    Final optimized geometry and variables:
    Molecular point group: c1

    Geometry (in Angstrom), charge = 0, multiplicity = 1:

    C           -2.053337308136     1.658231789824    -0.132272280518
    H           -1.020651750690     1.819829015184    -0.440984013424
    H           -2.324950026969     2.465155315096     0.548224211958
    H           -2.679329548200     1.744811239477    -1.021926408227
    C            2.495943123270     0.656049295057    -1.016703520407
    H            3.491120093291     0.945867605752    -1.353928262300
    H            1.813430839129     1.476107375898    -1.246818130310
    H            2.187559846125    -0.209687512911    -1.602482610350
    C           -2.243446770428     0.293987405253     0.521965587440
    H           -3.284349924664     0.196741545215     0.839045858477
    H           -1.642138899124     0.226235682027     1.431737888574
    C            2.494933813811     0.349099675384     0.476785550929
    H            3.179047987025    -0.481052362042     0.674389640942
    H            2.889120565536     1.210930352901     1.020627460337
    C           -1.906696599158    -0.868844020901    -0.409870771312
    H           -2.510554107219    -0.773683269097    -1.317745378324
    H           -2.207417082669    -1.806775967080     0.066174078079
    C           -0.431683700563    -0.985785692645    -0.799206974923
    H           -0.112152748830    -0.085522655116    -1.326611783743
    H           -0.340887780470    -1.804582636070    -1.517056654568
    C            0.494636235904    -1.253649475935     0.397829294534
    H           -0.076072477560    -1.807764877446     1.148579824957
    H            1.307488836284    -1.919113356408     0.092402684397
    C            1.120387260394    -0.006863068155     1.042410146779
    H            0.452381493823     0.849211261344     0.924808301911
    H            1.226795463774    -0.168117671158     2.117859911201

*** Psi4 exiting successfully. Buy a developer a beer!
