                              Psi4 1.0.0 Driver

  ==> Input File <==

--------------------------------------------------------------------------
memory 60 Gb

molecule molecule_06_psi {
0 1
C            2.565499435515    -1.539779321340     0.037185055473
H            3.147795722837    -2.214723444523    -0.589636731666
H            1.520048615236    -1.839653923197    -0.037765180673
H            2.879949561970    -1.687619555412     1.071865761273
C           -3.748059242549    -0.647970410130     0.144342201928
H           -4.112424968874    -1.580264118327     0.575082615816
H           -4.164651821281    -0.555678193116    -0.859427551250
H           -4.141509491405     0.174364054835     0.743326173277
C            2.762401439254    -0.088106775907    -0.385162909386
H            2.405977883248     0.047457980121    -1.408507314899
H            3.829978718150     0.141960916957    -0.401879326755
C           -2.225323873699    -0.603447512784     0.103766476086
H           -1.831939559676    -0.732123564059     1.113934664336
H           -1.845924029821    -1.441771609681    -0.488143576346
C            2.063518826806     0.906015102101     0.542258207969
H            2.236967656646     1.921136110099     0.173625162639
H            2.526809971555     0.849490667572     1.531707772636
C            0.558625846985     0.680995430442     0.683410765696
H            0.147723389776     1.443146263768     1.352803329072
H            0.377218828070    -0.280264175491     1.168274179520
C           -0.187095808180     0.743159505702    -0.645715787410
H            0.099467271631     1.662561803076    -1.165906570782
H            0.125936611413    -0.085841886302    -1.287380561124
C           -1.705476850661     0.699909355568    -0.492949467252
H           -2.031453336470     1.536908131426     0.133330624614
H           -2.171213549773     0.845657998445    -1.472116678493
}

set globals {
  reference rhf
  g_convergence gau_verytight
  basis aug-cc-pvtz
  freeze_core true
  scf_type df
  mp_type df
}
optimize('mp2')
--------------------------------------------------------------------------

    Molecular point group: c1
  Charge       = 0
  Multiplicity = 1
  Basis Set: AUG-CC-PVTZ
  Basis Set:
  @DF-RHF Final Energy:  -313.54179346587767
    Total Energy =                       -313.5417934658772765
  Basis Set:
    Molecular point group: c1
  Basis Set: AUG-CC-PVTZ
  Basis Set:
  Basis Set:
	 Reference Energy          =    -313.5417934658776744 [Eh]
	 Singles Energy            =      -0.0000000000000000 [Eh]
	 Same-Spin Energy          =      -0.3164951359234026 [Eh]
	 Opposite-Spin Energy      =      -1.1255512820256717 [Eh]
	 Correlation Energy        =      -1.4420464179490744 [Eh]
	 Total Energy              =    -314.9838398838267608 [Eh]
	 SCS Total Energy          =    -314.9979533829496177 [Eh]
  Basis Set: AUG-CC-PVTZ
  Basis Set:
  @DF-RHF Final Energy:  -313.54179264398755
    Total Energy =                       -313.5417926439878897
  Basis Set:
  Basis Set: AUG-CC-PVTZ
  Basis Set:
  @DF-RHF Final Energy:  -313.54179333170691
    Total Energy =                       -313.5417933317070833
  @DF-RHF Final Energy:  -313.54179313312773
    Total Energy =                       -313.5417931331278396
  @DF-RHF Final Energy:  -313.54179335220698
    Total Energy =                       -313.5417933522073781
  @DF-RHF Final Energy:  -313.54179327974214
    Total Energy =                       -313.5417932797414551
  @DF-RHF Final Energy:  -313.54179313281190
    Total Energy =                       -313.5417931328119039
  @DF-RHF Final Energy:  -313.54179330453644
    Total Energy =                       -313.5417933045364975
  @DF-RHF Final Energy:  -313.54179317577825
    Total Energy =                       -313.5417931757781957
  @DF-RHF Final Energy:  -313.54179316947125
    Total Energy =                       -313.5417931694712479
  @DF-RHF Final Energy:  -313.54179332938560
    Total Energy =                       -313.5417933293855413
  @DF-RHF Final Energy:  -313.54179338196110
    Total Energy =                       -313.5417933819611562
  @DF-RHF Final Energy:  -313.54179322857942
    Total Energy =                       -313.5417932285791380
  @DF-RHF Final Energy:  -313.54179339251385
    Total Energy =                       -313.5417933925143643
  @DF-RHF Final Energy:  -313.54179336780760
    Total Energy =                       -313.5417933678080544
  @DF-RHF Final Energy:  -313.54179336417883
    Total Energy =                       -313.5417933641787158
  @DF-RHF Final Energy:  -313.54179332010136
    Total Energy =                       -313.5417933201010783
  @DF-RHF Final Energy:  -313.54179338116984
    Total Energy =                       -313.5417933811695548
  @DF-RHF Final Energy:  -313.54179338559146
    Total Energy =                       -313.5417933855915749
  @DF-RHF Final Energy:  -313.54179338844426
    Total Energy =                       -313.5417933884446029
  @DF-RHF Final Energy:  -313.54179335573951
    Total Energy =                       -313.5417933557392303
	 Singles Energy            =      -0.0000000000000004 [Eh]
	 Same-Spin Energy          =      -0.3164951499186551 [Eh]
	 Opposite-Spin Energy      =      -1.1255513782818067 [Eh]
	 Correlation Energy        =      -1.4420465282004624 [Eh]
	 Total Energy              =    -314.9838398839399929 [Eh]
	 SCS Total Energy          =    -314.9979533929839022 [Eh]
  Charge       = 0
  Multiplicity = 1
  Basis Set: AUG-CC-PVTZ
  Basis Set:

    Orbital Energies (a.u.)
    -----------------------

    Doubly Occupied:

       1A    -11.212220     2A    -11.211908     3A    -11.210612
       4A    -11.210490     5A    -11.209944     6A    -11.208747
       7A    -11.207063     8A    -11.206864     9A     -1.095236
      10A     -1.060647    11A     -1.006363    12A     -0.948830
      13A     -0.881205    14A     -0.836530    15A     -0.788791
      16A     -0.750495    17A     -0.645354    18A     -0.628647
      19A     -0.621307    20A     -0.583240    21A     -0.579703
      22A     -0.564896    23A     -0.541398    24A     -0.529053
      25A     -0.521574    26A     -0.497580    27A     -0.491856
      28A     -0.471743    29A     -0.468496    30A     -0.459515
      31A     -0.445325    32A     -0.437735    33A     -0.436466

  @DF-RHF Final Energy:  -313.54179338951479

   => Energetics <=

    Nuclear Repulsion Energy =            395.4143627259963409
    One-Electron Energy =               -1205.9726423379188418
    Two-Electron Energy =                 497.0164862224074227
    DFT Exchange-Correlation Energy =       0.0000000000000000
    Empirical Dispersion Energy =           0.0000000000000000
    PCM Polarization Energy =               0.0000000000000000
    EFP Energy =                            0.0000000000000000
    Total Energy =                       -313.5417933895150213
  Basis Set:
    Molecular point group: c1
  Basis Set: AUG-CC-PVTZ
  Basis Set:
  Basis Set:
	 Reference Energy          =    -313.5417933895147939 [Eh]
	 Singles Energy            =      -0.0000000000000002 [Eh]
	 Same-Spin Energy          =      -0.3164951474824082 [Eh]
	 Opposite-Spin Energy      =      -1.1255513456484265 [Eh]
	 Correlation Energy        =      -1.4420464931308350 [Eh]
	 Total Energy              =    -314.9838398826456114 [Eh]

	 ================> DF-SCS-MP2 Energies <==================
	-----------------------------------------------------------
	 SCS Same-Spin Scale       =       0.3333333333333333 [-]
	 SCS Opposite-Spin Scale   =       1.2000000000000000 [-]
	 SCS Same-Spin Energy      =      -0.1054983824941361 [Eh]
	 SCS Opposite-Spin Energy  =      -1.3506616147781119 [Eh]
	 SCS Correlation Energy    =      -1.4561599972722481 [Eh]
	 SCS Total Energy          =    -314.9979533867870600 [Eh]
	-----------------------------------------------------------

  -Total Gradient:
     Atom            X                  Y                   Z
    ------   -----------------  -----------------  -----------------
       1        0.000000122514     0.000000243263    -0.000000024284
       2        0.000000123061    -0.000000115592    -0.000000167221
       3       -0.000000304126    -0.000000099020    -0.000000000899
       4        0.000000028238    -0.000000047623     0.000000165164
       5        0.000000098533     0.000000035416     0.000000003345
       6       -0.000000068718    -0.000000208250     0.000000094675
       7       -0.000000127869     0.000000025921    -0.000000250795
       8       -0.000000098973     0.000000198708     0.000000129162
       9       -0.000000106661    -0.000000158600     0.000000280840
      10       -0.000000065038     0.000000055276    -0.000000287073
      11        0.000000083054    -0.000000024454     0.000000008661
      12       -0.000000258435     0.000000411256    -0.000000212329
      13        0.000000198841    -0.000000104247     0.000000454848
      14        0.000000157762    -0.000000482703    -0.000000253241
      15        0.000000065749    -0.000000119940    -0.000000032664
      16        0.000000063955     0.000000179922    -0.000000065002
      17        0.000000081033    -0.000000000147     0.000000092810
      18        0.000000346969     0.000000139271    -0.000000257081
      19       -0.000000102939     0.000000172952     0.000000053341
      20       -0.000000003352    -0.000000363207     0.000000314257
      21       -0.000000378088     0.000000122437     0.000000511152
      22        0.000000115036     0.000000549193    -0.000000255242
      23        0.000000291249    -0.000000442157    -0.000000389278
      24        0.000000130479    -0.000000389357     0.000000197366
      25       -0.000000181387     0.000000408967     0.000000270577
      26       -0.000000210888     0.000000012715    -0.000000381090

  **** Optimization is complete! (in 22 steps) ****
    Final optimized geometry and variables:
    Molecular point group: c1

    Geometry (in Angstrom), charge = 0, multiplicity = 1:

    C            2.565460845865    -1.539787923561     0.037197410635
    H            3.147748730095    -2.214748867944    -0.589614489127
    H            1.520004831152    -1.839645263395    -0.037754799055
    H            2.879903346972    -1.687622446602     1.071881616601
    C           -3.748036014908    -0.648008239816     0.144345834738
    H           -4.112383466486    -1.580317014454     0.575069616021
    H           -4.164640825598    -0.555700126836    -0.859417732992
    H           -4.141492443592     0.174307447954     0.743352099648
    C            2.762390773092    -0.088123877985    -0.385165897288
    H            2.405972395989     0.047436478723    -1.408513366185
    H            3.829972892110     0.141923135586    -0.401882474239
    C           -2.225301834000    -0.603462120657     0.103754909601
    H           -1.831904612677    -0.732156879430     1.113916162692
    H           -1.845896478531    -1.441767508550    -0.488178712068
    C            2.063526798434     0.906022772559     0.542243088954
    H            2.236990886890     1.921136216631     0.173594101499
    H            2.526822107281     0.849505190096     1.531691905003
    C            0.558630868251     0.681028713111     0.683407917899
    H            0.147745177496     1.443191616792     1.352797387945
    H            0.377212122199    -0.280224562476     1.168280814599
    C           -0.187100822364     0.743194093234    -0.645712663186
    H            0.099444352746     1.662606436239    -1.165896727914
    H            0.125940671132    -0.085796560817    -1.287387688315
    C           -1.705479948284     0.699915617658    -0.492937202392
    H           -2.031467197783     1.536896864160     0.133361666045
    H           -2.171225644367     0.845675710931    -1.472098965834

*** Psi4 exiting successfully. Buy a developer a beer!
