                              Psi4 1.0.0 Driver

  ==> Input File <==

--------------------------------------------------------------------------
memory 30 Gb

molecule molecule_31_psi {
0 1
symmetry c1
    C            3.887584362519     0.165486447371    -0.372647871611
    H            4.148909725392     1.186259402141    -0.099526216966
    H            4.414908668045    -0.083348302502    -1.290683951521
    H            4.254302403313    -0.491969593824     0.413813453621
    C           -3.069177631772     1.196830004333    -0.054416855174
    H           -3.542366011589     1.878871989467    -0.758019604783
    H           -2.223105559252     1.709579216318     0.393756654330
    H           -3.784821600646     0.985181719528     0.738323351075
    C            2.385576973977     0.020430902904    -0.531615255688
    H            2.151791433373    -0.997213717627    -0.842071438033
    H            2.031829874412     0.679529814657    -1.327162241196
    C           -2.646184697401    -0.094425681817    -0.735844347465
    H           -3.530733814606    -0.562794326284    -1.166228883666
    H           -1.982019740270     0.128961523922    -1.573250401938
    C            1.639975822037     0.349057608783     0.749227315787
    H            1.966946452832     1.328784390742     1.103883108066
    H            1.922085417403    -0.371629869925     1.521112735235
    C            0.127821365559     0.351141917446     0.594537949644
    H           -0.149475107127     1.107578854778    -0.142260419406
    H           -0.331631728339     0.649338119022     1.539321683963
    C           -0.432545292161    -0.998023209122     0.178354600278
    H           -0.090340246285    -1.238819228772    -0.829290932930
    H           -0.020334771792    -1.764917686378     0.838944858199
    C           -1.951217438468    -1.084409845922     0.199980861691
    H           -2.236705988741    -2.101429244925    -0.069775333983
    H           -2.306660430288    -0.923770679299     1.220766139626
}

set globals {
  reference rhf
  g_convergence gau_verytight
  basis aug-cc-pvtz
  freeze_core true
  scf_type df
  mp_type df
}
optimize('mp2')
--------------------------------------------------------------------------

    Molecular point group: c1
  Charge       = 0
  Multiplicity = 1
  Basis Set: AUG-CC-PVTZ
  Basis Set:
  @DF-RHF Final Energy:  -313.53854171708269
    Total Energy =                       -313.5385417170825804
  Basis Set:
    Molecular point group: c1
  Basis Set: AUG-CC-PVTZ
  Basis Set:
  Basis Set:
	 Reference Energy          =    -313.5385417170826940 [Eh]
	 Singles Energy            =      -0.0000000000000000 [Eh]
	 Same-Spin Energy          =      -0.3165662892930792 [Eh]
	 Opposite-Spin Energy      =      -1.1251209508519249 [Eh]
	 Correlation Energy        =      -1.4416872401450040 [Eh]
	 Total Energy              =    -314.9802289572277232 [Eh]
	 SCS Total Energy          =    -314.9942089545360204 [Eh]
  Basis Set: AUG-CC-PVTZ
  Basis Set:
  @DF-RHF Final Energy:  -313.53892705031893
    Total Energy =                       -313.5389270503191597
  Basis Set:
  Basis Set: AUG-CC-PVTZ
  Basis Set:
  @DF-RHF Final Energy:  -313.53893782871450
    Total Energy =                       -313.5389378287145519
  @DF-RHF Final Energy:  -313.53891845146450
    Total Energy =                       -313.5389184514643830
  @DF-RHF Final Energy:  -313.53896135718350
    Total Energy =                       -313.5389613571838368
  @DF-RHF Final Energy:  -313.53895249120006
    Total Energy =                       -313.5389524912003480
  @DF-RHF Final Energy:  -313.53895227096280
    Total Energy =                       -313.5389522709631365
  @DF-RHF Final Energy:  -313.53895219048889
    Total Energy =                       -313.5389521904886578
  @DF-RHF Final Energy:  -313.53895213711559
    Total Energy =                       -313.5389521371154160
  @DF-RHF Final Energy:  -313.53895204502982
    Total Energy =                       -313.5389520450296459
  @DF-RHF Final Energy:  -313.53895238000064
    Total Energy =                       -313.5389523800008647
  @DF-RHF Final Energy:  -313.53895207926098
    Total Energy =                       -313.5389520792613212
  @DF-RHF Final Energy:  -313.53895222521595
    Total Energy =                       -313.5389522252160077
  @DF-RHF Final Energy:  -313.53895220896749
    Total Energy =                       -313.5389522089678849
  @DF-RHF Final Energy:  -313.53895227418917
    Total Energy =                       -313.5389522741888300
	 Singles Energy            =      -0.0000000000000001 [Eh]
	 Same-Spin Energy          =      -0.3161252787930970 [Eh]
	 Opposite-Spin Energy      =      -1.1254308925586329 [Eh]
	 Correlation Energy        =      -1.4415561713517300 [Eh]
	 Total Energy              =    -314.9805084455409201 [Eh]
	 SCS Total Energy          =    -314.9948444381905688 [Eh]
  Charge       = 0
  Multiplicity = 1
  Basis Set: AUG-CC-PVTZ
  Basis Set:

    Orbital Energies (a.u.)
    -----------------------

    Doubly Occupied:

       1A    -11.212725     2A    -11.212140     3A    -11.210812
       4A    -11.210606     5A    -11.210209     6A    -11.209789
       7A    -11.207045     8A    -11.205579     9A     -1.093990
      10A     -1.059365    11A     -1.006949    12A     -0.951634
      13A     -0.879500    14A     -0.829191    15A     -0.789577
      16A     -0.760721    17A     -0.644575    18A     -0.622304
      19A     -0.612410    20A     -0.596733    21A     -0.576880
      22A     -0.559772    23A     -0.545063    24A     -0.538663
      25A     -0.508133    26A     -0.498781    27A     -0.487526
      28A     -0.477652    29A     -0.468832    30A     -0.462192
      31A     -0.445008    32A     -0.437719    33A     -0.432257

  @DF-RHF Final Energy:  -313.53895215385921

   => Energetics <=

    Nuclear Repulsion Energy =            392.6880486791627618
    One-Electron Energy =               -1200.5253333954906338
    Two-Electron Energy =                 494.2983325624688860
    DFT Exchange-Correlation Energy =       0.0000000000000000
    Empirical Dispersion Energy =           0.0000000000000000
    PCM Polarization Energy =               0.0000000000000000
    EFP Energy =                            0.0000000000000000
    Total Energy =                       -313.5389521538589861
  Basis Set:
    Molecular point group: c1
  Basis Set: AUG-CC-PVTZ
  Basis Set:
  Basis Set:
	 Reference Energy          =    -313.5389521538592135 [Eh]
	 Singles Energy            =      -0.0000000000000001 [Eh]
	 Same-Spin Energy          =      -0.3161252778850123 [Eh]
	 Opposite-Spin Energy      =      -1.1254310113856516 [Eh]
	 Correlation Energy        =      -1.4415562892706641 [Eh]
	 Total Energy              =    -314.9805084431298496 [Eh]

	 ================> DF-SCS-MP2 Energies <==================
	-----------------------------------------------------------
	 SCS Same-Spin Scale       =       0.3333333333333333 [-]
	 SCS Opposite-Spin Scale   =       1.2000000000000000 [-]
	 SCS Same-Spin Energy      =      -0.1053750926283374 [Eh]
	 SCS Opposite-Spin Energy  =      -1.3505172136627819 [Eh]
	 SCS Correlation Energy    =      -1.4558923062911195 [Eh]
	 SCS Total Energy          =    -314.9948444601503184 [Eh]
	-----------------------------------------------------------

  -Total Gradient:
     Atom            X                  Y                   Z
    ------   -----------------  -----------------  -----------------
       1        0.000000176314     0.000000021718    -0.000000027319
       2       -0.000000021724    -0.000000078990    -0.000000035270
       3       -0.000000073815     0.000000013664     0.000000085089
       4       -0.000000059545     0.000000040385    -0.000000063800
       5       -0.000000166902    -0.000000045360    -0.000000096545
       6       -0.000000062664     0.000000058955    -0.000000094215
       7        0.000000208031     0.000000051523     0.000000058409
       8       -0.000000100514    -0.000000004816     0.000000128399
       9       -0.000000168886    -0.000000069917    -0.000000203798
      10        0.000000036093     0.000000074677     0.000000059106
      11        0.000000055642    -0.000000054568     0.000000088960
      12        0.000000044614     0.000000106489     0.000000099416
      13       -0.000000196486     0.000000002515    -0.000000038573
      14        0.000000154362     0.000000061614    -0.000000206695
      15        0.000000212660     0.000000086309     0.000000152483
      16        0.000000014065    -0.000000035674    -0.000000047194
      17       -0.000000003827     0.000000011366     0.000000007559
      18       -0.000000088434    -0.000000061028     0.000000040610
      19        0.000000021039     0.000000144336    -0.000000047500
      20        0.000000060083    -0.000000003901     0.000000011654
      21       -0.000000151776     0.000000010674    -0.000000035878
      22        0.000000001199    -0.000000057405    -0.000000031301
      23        0.000000008964    -0.000000021913     0.000000037860
      24        0.000000095543    -0.000000174781    -0.000000004309
      25        0.000000003733    -0.000000062989     0.000000014399
      26        0.000000002232    -0.000000012883     0.000000148450

  **** Optimization is complete! (in 16 steps) ****
    Final optimized geometry and variables:
    Molecular point group: c1

    Geometry (in Angstrom), charge = 0, multiplicity = 1:

    C            3.908576604428     0.172576676522    -0.349200958917
    H            4.183794994853     1.177967940423    -0.028170361934
    H            4.442484646800    -0.042789872609    -1.274420371882
    H            4.260361886193    -0.525944774942     0.411160979361
    C           -3.074734861975     1.197364856783    -0.109183292180
    H           -3.559786012494     1.855029950056    -0.830890324242
    H           -2.221597384398     1.728540859103     0.308707532071
    H           -3.780212911697     1.015590398953     0.702730910410
    C            2.399780185975     0.056737695977    -0.529436755347
    H            2.153125428118    -0.945708562773    -0.884153982438
    H            2.064533873574     0.753038286823    -1.303827323260
    C           -2.661890867563    -0.122999955301    -0.754567352338
    H           -3.556598786776    -0.598699456332    -1.160888410463
    H           -2.005455771754     0.068367815427    -1.608646805580
    C            1.644899785280     0.350347372514     0.762390843833
    H            1.968343278131     1.324176500449     1.141843615644
    H            1.929251099290    -0.387486861563     1.519948222524
    C            0.125981580315     0.351706711649     0.604559167155
    H           -0.150392886330     1.106314302668    -0.137351213167
    H           -0.334429258148     0.656871396436     1.549086808204
    C           -0.437794481459    -1.005781773541     0.196604708252
    H           -0.086298863582    -1.262204721721    -0.806396525710
    H           -0.032485923900    -1.767249363571     0.871061512438
    C           -1.963714428106    -1.093819939036     0.208392474813
    H           -2.242265241682    -2.118702364235    -0.046586953342
    H           -2.331101831785    -0.919437057543     1.224840703703

*** Psi4 exiting successfully. Buy a developer a beer!
