                              Psi4 1.0.0 Driver

  ==> Input File <==

--------------------------------------------------------------------------
memory 40 Gb

molecule molecule_1 {
0 1
    C            2.131378406779     1.579518637458    -0.549299091492
    H            1.992214666649     2.319338488686     0.240265362918
    H            1.199727646420     1.522510771529    -1.111457801162
    H            2.906710621238     1.948421911419    -1.221294992703
    C           -3.160837391002     1.086544246039     0.308213829835
    H           -3.250450370207     1.992249486540     0.907522059942
    H           -3.552034857303     1.301193465144    -0.687058198661
    H           -3.797678178784     0.322835075844     0.756886420125
    C            2.509385521203     0.227946550881     0.050460818055
    H            3.457168472417     0.339879277788     0.579987764883
    H            2.695208341843    -0.491767067147    -0.751490117228
    C           -1.717111655506     0.604145908418     0.228490150781
    H           -1.090074999346     1.383518031693    -0.212939250762
    H           -1.338379277691     0.432470933098     1.237732003512
    C            1.446685071881    -0.339327574938     1.008979827712
    H            1.932665793724    -0.710979806377     1.913762430873
    H            0.787514332017     0.469068030499     1.329261432333
    C            0.634516199620    -1.493772714912     0.413629989565
    H           -0.043489920534    -1.894846180232     1.174143097876
    H            1.340445154779    -2.296712018276     0.183918100232
    C           -0.172990838525    -1.169656745314    -0.849468754489
    H            0.366250795566    -0.440017983535    -1.458612331792
    H           -0.244316276503    -2.072539043472    -1.460680074616
    C           -1.596435894061    -0.675101995681    -0.592303238800
    H           -2.158042445256    -1.468106068793    -0.087038123955
    H           -2.091562949202    -0.516816276985    -1.555607523222
}

set globals {
  reference rhf
  g_convergence gau_verytight
  basis aug-cc-pvtz
  freeze_core true
  scf_type df
  mp_type df
}
optimize('mp2')
--------------------------------------------------------------------------

    Molecular point group: c1
  Charge       = 0
  Multiplicity = 1
  Basis Set: AUG-CC-PVTZ
  Basis Set:
  @DF-RHF Final Energy:  -313.53273326712116
    Total Energy =                       -313.5327332671210456
  Basis Set:
    Molecular point group: c1
  Basis Set: AUG-CC-PVTZ
  Basis Set:
  Basis Set:
	 Reference Energy          =    -313.5327332671211593 [Eh]
	 Singles Energy            =      -0.0000000000000001 [Eh]
	 Same-Spin Energy          =      -0.3170101580392983 [Eh]
	 Opposite-Spin Energy      =      -1.1269436158258170 [Eh]
	 Correlation Energy        =      -1.4439537738651154 [Eh]
	 Total Energy              =    -314.9766870409862918 [Eh]
	 SCS Total Energy          =    -314.9907356587918912 [Eh]
  Basis Set: AUG-CC-PVTZ
  Basis Set:
  @DF-RHF Final Energy:  -313.53273469648298
    Total Energy =                       -313.5327346964828621
  Basis Set:
  Basis Set: AUG-CC-PVTZ
  Basis Set:
  @DF-RHF Final Energy:  -313.53273344699073
    Total Energy =                       -313.5327334469909033
  @DF-RHF Final Energy:  -313.53273351353039
    Total Energy =                       -313.5327335135300473
  @DF-RHF Final Energy:  -313.53273340736865
    Total Energy =                       -313.5327334073685961
  @DF-RHF Final Energy:  -313.53273329016082
    Total Energy =                       -313.5327332901606496
  @DF-RHF Final Energy:  -313.53273330787687
    Total Energy =                       -313.5327333078768106
  @DF-RHF Final Energy:  -313.53273325878286
    Total Energy =                       -313.5327332587829687
  @DF-RHF Final Energy:  -313.53273323597932
    Total Energy =                       -313.5327332359794354
  @DF-RHF Final Energy:  -313.53273326717192
    Total Energy =                       -313.5327332671719205
  @DF-RHF Final Energy:  -313.53273335030013
    Total Energy =                       -313.5327333503000773
  @DF-RHF Final Energy:  -313.53273339879939
    Total Energy =                       -313.5327333987995644
  @DF-RHF Final Energy:  -313.53273342583600
    Total Energy =                       -313.5327334258357723
  @DF-RHF Final Energy:  -313.53273329657407
    Total Energy =                       -313.5327332965742926
  @DF-RHF Final Energy:  -313.53273328380868
    Total Energy =                       -313.5327332838091365
  @DF-RHF Final Energy:  -313.53273338681049
    Total Energy =                       -313.5327333868104915
  @DF-RHF Final Energy:  -313.53273333017427
    Total Energy =                       -313.5327333301739827
  @DF-RHF Final Energy:  -313.53273332096234
    Total Energy =                       -313.5327333209619383
  @DF-RHF Final Energy:  -313.53273334224639
    Total Energy =                       -313.5327333422463880
  @DF-RHF Final Energy:  -313.53273329705877
    Total Energy =                       -313.5327332970586554
  @DF-RHF Final Energy:  -313.53273325851501
    Total Energy =                       -313.5327332585151225
  @DF-RHF Final Energy:  -313.53273328900576
    Total Energy =                       -313.5327332890055345
  @DF-RHF Final Energy:  -313.53273329767978
    Total Energy =                       -313.5327332976797834
  @DF-RHF Final Energy:  -313.53273330793735
    Total Energy =                       -313.5327333079372352
  @DF-RHF Final Energy:  -313.53273328902105
    Total Energy =                       -313.5327332890209391
  @DF-RHF Final Energy:  -313.53273332968621
    Total Energy =                       -313.5327333296861525
  @DF-RHF Final Energy:  -313.53273332998299
    Total Energy =                       -313.5327333299829888
  @DF-RHF Final Energy:  -313.53273327339480
    Total Energy =                       -313.5327332733950243
  @DF-RHF Final Energy:  -313.53273331938499
    Total Energy =                       -313.5327333193848744
  @DF-RHF Final Energy:  -313.53273331461736
    Total Energy =                       -313.5327333146173032
  @DF-RHF Final Energy:  -313.53273330347565
    Total Energy =                       -313.5327333034756521
  @DF-RHF Final Energy:  -313.53273332149394
    Total Energy =                       -313.5327333214937653
  @DF-RHF Final Energy:  -313.53273329507721
    Total Energy =                       -313.5327332950773211
	 Singles Energy            =      -0.0000000000000003 [Eh]
	 Same-Spin Energy          =      -0.3170101410516836 [Eh]
	 Opposite-Spin Energy      =      -1.1269436066824223 [Eh]
	 Correlation Energy        =      -1.4439537477341062 [Eh]
	 Total Energy              =    -314.9766870428113066 [Eh]
	 SCS Total Energy          =    -314.9907356701133381 [Eh]
  Charge       = 0
  Multiplicity = 1
  Basis Set: AUG-CC-PVTZ
  Basis Set:

    Orbital Energies (a.u.)
    -----------------------

    Doubly Occupied:

       1A    -11.212529     2A    -11.211964     3A    -11.211345
       4A    -11.210798     5A    -11.209728     6A    -11.209059
       7A    -11.207439     8A    -11.206986     9A     -1.092886
      10A     -1.056903    11A     -1.007747    12A     -0.951380
      13A     -0.881802    14A     -0.831738    15A     -0.785970
      16A     -0.759856    17A     -0.646646    18A     -0.627602
      19A     -0.607318    20A     -0.591267    21A     -0.580489
      22A     -0.558392    23A     -0.544779    24A     -0.539706
      25A     -0.508187    26A     -0.498925    27A     -0.492816
      28A     -0.480620    29A     -0.464612    30A     -0.463137
      31A     -0.439700    32A     -0.436055    33A     -0.431815

  @DF-RHF Final Energy:  -313.53273329064899

   => Energetics <=

    Nuclear Repulsion Energy =            403.4736513331166066
    One-Electron Energy =               -1222.0923802207807967
    Two-Electron Energy =                 505.0859955970152555
    DFT Exchange-Correlation Energy =       0.0000000000000000
    Empirical Dispersion Energy =           0.0000000000000000
    PCM Polarization Energy =               0.0000000000000000
    EFP Energy =                            0.0000000000000000
    Total Energy =                       -313.5327332906489914
  Basis Set:
    Molecular point group: c1
  Basis Set: AUG-CC-PVTZ
  Basis Set:
  Basis Set:
	 Reference Energy          =    -313.5327332906489914 [Eh]
	 Singles Energy            =      -0.0000000000000002 [Eh]
	 Same-Spin Energy          =      -0.3170101413394127 [Eh]
	 Opposite-Spin Energy      =      -1.1269436143644278 [Eh]
	 Correlation Energy        =      -1.4439537557038407 [Eh]
	 Total Energy              =    -314.9766870463528221 [Eh]

	 ================> DF-SCS-MP2 Energies <==================
	-----------------------------------------------------------
	 SCS Same-Spin Scale       =       0.3333333333333333 [-]
	 SCS Opposite-Spin Scale   =       1.2000000000000000 [-]
	 SCS Same-Spin Energy      =      -0.1056700471131376 [Eh]
	 SCS Opposite-Spin Energy  =      -1.3523323372373133 [Eh]
	 SCS Correlation Energy    =      -1.4580023843504510 [Eh]
	 SCS Total Energy          =    -314.9907356749994278 [Eh]
	-----------------------------------------------------------

  -Total Gradient:
     Atom            X                  Y                   Z
    ------   -----------------  -----------------  -----------------
       1       -0.000000030875     0.000000849226    -0.000000414061
       2        0.000000158338    -0.000000452981    -0.000000447637
       3        0.000000721477     0.000000006430     0.000000470727
       4       -0.000000444801    -0.000000110788     0.000000284159
       5       -0.000000779640     0.000000190098     0.000000030894
       6        0.000000099920    -0.000000526786    -0.000000356937
       7        0.000000270696    -0.000000129481     0.000000597674
       8        0.000000454038     0.000000506334    -0.000000285646
       9        0.000000116069    -0.000001070192    -0.000000095609
      10       -0.000000357820    -0.000000142724    -0.000000266292
      11       -0.000000064288     0.000000657210     0.000000610167
      12        0.000001031004     0.000000670233     0.000000661996
      13       -0.000000568294    -0.000001166328     0.000000259232
      14       -0.000000483757    -0.000000096795    -0.000001196652
      15       -0.000000313774     0.000000895157     0.000001026160
      16       -0.000000466421     0.000000511546    -0.000000525082
      17        0.000000836065    -0.000001230164    -0.000000613543
      18       -0.000000515460    -0.000000851034     0.000000633727
      19        0.000000998092     0.000000335552    -0.000000912205
      20       -0.000000837332     0.000000597249     0.000000243692
      21        0.000000906776     0.000000491595    -0.000001328047
      22       -0.000000822174    -0.000000914834     0.000001263249
      23        0.000000191467     0.000000717154     0.000000143804
      24       -0.000001191992    -0.000000537193    -0.000000212774
      25        0.000000720261     0.000000991607    -0.000000433319
      26        0.000000372421    -0.000000190089     0.000000862324

  **** Optimization is complete! (in 34 steps) ****
    Final optimized geometry and variables:
    Molecular point group: c1

    Geometry (in Angstrom), charge = 0, multiplicity = 1:

    C            2.131331694582     1.579560437189    -0.549436996650
    H            1.992202825017     2.319377414418     0.240136050496
    H            1.199650422455     1.522540704738    -1.111543622748
    H            2.906621740261     1.948473546260    -1.221475860172
    C           -3.160850207580     1.086460067567     0.308435232340
    H           -3.250448957888     1.992149956132     0.907768689440
    H           -3.552122440774     1.301117938714    -0.686805382217
    H           -3.797636662035     0.322722024900     0.757135774224
    C            2.509388101029     0.227992056011     0.050300298524
    H            3.457203284011     0.339933962273     0.579767665501
    H            2.695166944127    -0.491720322963    -0.751661637994
    C           -1.717115304535     0.604107182807     0.228600432957
    H           -1.090133990948     1.383504355750    -0.212863174188
    H           -1.338305642928     0.432430681802     1.237812983763
    C            1.446752112295    -0.339289325757     1.008887180935
    H            1.932791594940    -0.710926405696     1.913644578394
    H            0.787586792817     0.469098574004     1.329199981234
    C            0.634564714650    -1.493750327980     0.413593253130
    H           -0.043393123934    -1.894825681697     1.174148458900
    H            1.340491811178    -2.296682109393     0.183849268006
    C           -0.173018506783    -1.169654143832    -0.849462838528
    H            0.366174181951    -0.440005069743    -1.458637273522
    H           -0.244359786255    -2.072538871995    -1.460668483861
    C           -1.596458979410    -0.675126789852    -0.592219100560
    H           -2.158025825825    -1.468149726290    -0.086939323680
    H           -2.091636670985    -0.516833809218    -1.555496170202

*** Psi4 exiting successfully. Buy a developer a beer!
