                              Psi4 1.0.0 Driver

  ==> Input File <==

--------------------------------------------------------------------------
memory 60 Gb

molecule molecule_39_psi {
0 1
C           -2.887586227812    -1.318715398888    -0.375460500403
H           -1.999772622562    -1.908532328032    -0.150193605009
H           -2.921390487448    -1.165263598065    -1.455513403569
H           -3.757089101558    -1.912571848794    -0.094707903040
C            2.362038874056    -1.649128833640     0.387488525331
H            2.956477180767    -1.573974817820     1.299048141188
H            2.654527581587    -2.564979924803    -0.126655342176
H            1.318799231490    -1.747867031129     0.682968741370
C           -2.874146698655     0.019011426309     0.356852018849
H           -2.797893561934    -0.153139173417     1.434062710328
H           -3.826371918634     0.527854190397     0.191364205353
C            2.588954843934    -0.422397226003    -0.492326291543
H            3.648246136233    -0.379773637363    -0.752809717383
H            2.048659079049    -0.535443976782    -1.436887560297
C           -1.736487395511     0.937518860703    -0.083417685293
H           -1.840587071242     1.905272769223     0.415544859233
H           -1.824727285957     1.131129734605    -1.157694464180
C           -0.347812396390     0.381179266208     0.210474936329
H           -0.207822722742    -0.555940359720    -0.331535254983
H           -0.272211307372     0.143784437986     1.277518811551
C            0.756989359260     1.358359037208    -0.173462061691
H            0.700232416178     1.546914268300    -1.250628616561
H            0.565101800266     2.317291339170     0.317334373109
C            2.173387820642     0.898643231262     0.170701110514
H            2.865180840527     1.689209447142    -0.128125037114
H            2.269876163776     0.801436924084     1.256787637533
}

set globals {
  reference rhf
  g_convergence gau_verytight
  basis aug-cc-pvtz
  freeze_core true
  scf_type df
  mp_type df
}
optimize('mp2')
--------------------------------------------------------------------------

    Molecular point group: c1
  Charge       = 0
  Multiplicity = 1
  Basis Set: AUG-CC-PVTZ
  Basis Set:
  @DF-RHF Final Energy:  -313.53891912559311
    Total Energy =                       -313.5389191255933383
  Basis Set:
    Molecular point group: c1
  Basis Set: AUG-CC-PVTZ
  Basis Set:
  Basis Set:
	 Reference Energy          =    -313.5389191255931109 [Eh]
	 Singles Energy            =      -0.0000000000000000 [Eh]
	 Same-Spin Energy          =      -0.3162032339575341 [Eh]
	 Opposite-Spin Energy      =      -1.1255036257355511 [Eh]
	 Correlation Energy        =      -1.4417068596930851 [Eh]
	 Total Energy              =    -314.9806259852862240 [Eh]
	 SCS Total Energy          =    -314.9949245544615906 [Eh]
  Basis Set: AUG-CC-PVTZ
  Basis Set:
  @DF-RHF Final Energy:  -313.53891888639743
    Total Energy =                       -313.5389188863974823
  Basis Set:
  Basis Set: AUG-CC-PVTZ
  Basis Set:
  @DF-RHF Final Energy:  -313.53891906337060
    Total Energy =                       -313.5389190633707130
  @DF-RHF Final Energy:  -313.53891907832542
    Total Energy =                       -313.5389190783256481
  @DF-RHF Final Energy:  -313.53891893087695
    Total Energy =                       -313.5389189308765481
  @DF-RHF Final Energy:  -313.53891896654437
    Total Energy =                       -313.5389189665444292
  @DF-RHF Final Energy:  -313.53891903228077
    Total Energy =                       -313.5389190322810009
  @DF-RHF Final Energy:  -313.53891875938797
    Total Energy =                       -313.5389187593882525
  @DF-RHF Final Energy:  -313.53891896035333
    Total Energy =                       -313.5389189603532714
  @DF-RHF Final Energy:  -313.53891871370547
    Total Energy =                       -313.5389187137056410
  @DF-RHF Final Energy:  -313.53891896489029
    Total Energy =                       -313.5389189648901720
  @DF-RHF Final Energy:  -313.53891906709003
    Total Energy =                       -313.5389190670899779
  @DF-RHF Final Energy:  -313.53891905031304
    Total Energy =                       -313.5389190503127566
  @DF-RHF Final Energy:  -313.53891895569546
    Total Energy =                       -313.5389189556956353
	 Singles Energy            =      -0.0000000000000000 [Eh]
	 Same-Spin Energy          =      -0.3162032764879679 [Eh]
	 Opposite-Spin Energy      =      -1.1255037555765357 [Eh]
	 Correlation Energy        =      -1.4417070320645036 [Eh]
	 Total Energy              =    -314.9806259877599928 [Eh]
	 SCS Total Energy          =    -314.9949245545499821 [Eh]
  Charge       = 0
  Multiplicity = 1
  Basis Set: AUG-CC-PVTZ
  Basis Set:

    Orbital Energies (a.u.)
    -----------------------

    Doubly Occupied:

       1A    -11.213033     2A    -11.212871     3A    -11.210877
       4A    -11.210391     5A    -11.210250     6A    -11.208914
       7A    -11.206974     8A    -11.206083     9A     -1.093783
      10A     -1.060059    11A     -1.007010    12A     -0.948906
      13A     -0.886340    14A     -0.828211    15A     -0.777405
      16A     -0.768695    17A     -0.647929    18A     -0.622117
      19A     -0.611482    20A     -0.591981    21A     -0.588100
      22A     -0.558226    23A     -0.544365    24A     -0.521603
      25A     -0.516595    26A     -0.509997    27A     -0.483608
      28A     -0.474130    29A     -0.464047    30A     -0.460958
      31A     -0.453304    32A     -0.439978    33A     -0.429077

  @DF-RHF Final Energy:  -313.53891906511495

   => Energetics <=

    Nuclear Repulsion Energy =            395.2214693943072348
    One-Electron Energy =               -1205.5861737287295909
    Two-Electron Energy =                 496.8257852693071754
    DFT Exchange-Correlation Energy =       0.0000000000000000
    Empirical Dispersion Energy =           0.0000000000000000
    PCM Polarization Energy =               0.0000000000000000
    EFP Energy =                            0.0000000000000000
    Total Energy =                       -313.5389190651152376
  Basis Set:
    Molecular point group: c1
  Basis Set: AUG-CC-PVTZ
  Basis Set:
  Basis Set:
	 Reference Energy          =    -313.5389190651149534 [Eh]
	 Singles Energy            =      -0.0000000000000000 [Eh]
	 Same-Spin Energy          =      -0.3162032396722643 [Eh]
	 Opposite-Spin Energy      =      -1.1255036795635724 [Eh]
	 Correlation Energy        =      -1.4417069192358367 [Eh]
	 Total Energy              =    -314.9806259843508087 [Eh]

	 ================> DF-SCS-MP2 Energies <==================
	-----------------------------------------------------------
	 SCS Same-Spin Scale       =       0.3333333333333333 [-]
	 SCS Opposite-Spin Scale   =       1.2000000000000000 [-]
	 SCS Same-Spin Energy      =      -0.1054010798907548 [Eh]
	 SCS Opposite-Spin Energy  =      -1.3506044154762868 [Eh]
	 SCS Correlation Energy    =      -1.4560054953670416 [Eh]
	 SCS Total Energy          =    -314.9949245604819907 [Eh]
	-----------------------------------------------------------

  -Total Gradient:
     Atom            X                  Y                   Z
    ------   -----------------  -----------------  -----------------
       1        0.000000071791     0.000000662410     0.000000312697
       2        0.000000537074    -0.000000490108     0.000000085601
       3       -0.000000022177    -0.000000010843    -0.000000699423
       4       -0.000000476603    -0.000000227777     0.000000180660
       5        0.000000073517     0.000000457034    -0.000000349883
       6        0.000000245963     0.000000019077     0.000000430079
       7        0.000000123532    -0.000000370288    -0.000000222714
       8       -0.000000577307    -0.000000067695     0.000000194821
       9        0.000000356857    -0.000000344089    -0.000000574227
      10       -0.000000036773    -0.000000113766     0.000000772779
      11       -0.000000453158     0.000000207027    -0.000000128856
      12        0.000000075934    -0.000000190251     0.000000526498
      13        0.000000250166    -0.000000067578     0.000000043831
      14       -0.000000272338    -0.000000015247    -0.000000515425
      15       -0.000000047674    -0.000000705480     0.000000357629
      16       -0.000000224219     0.000000681260     0.000000300789
      17       -0.000000185060     0.000000248385    -0.000000801180
      18       -0.000000012006     0.000001460809    -0.000000512326
      19        0.000000192029    -0.000000965020    -0.000000227507
      20        0.000000099988    -0.000000434450     0.000001079248
      21        0.000000117887    -0.000000717642     0.000000318996
      22        0.000000031882     0.000000207942    -0.000000760945
      23       -0.000000034214     0.000000629663     0.000000320906
      24       -0.000000316338    -0.000000150928    -0.000000660496
      25        0.000000253771     0.000000330740    -0.000000168145
      26        0.000000227477    -0.000000033186     0.000000696592

  **** Optimization is complete! (in 15 steps) ****
    Final optimized geometry and variables:
    Molecular point group: c1

    Geometry (in Angstrom), charge = 0, multiplicity = 1:

    C           -2.887581679142    -1.318714825980    -0.375469738364
    H           -1.999767930744    -1.908532880853    -0.150207222606
    H           -2.921384885661    -1.165253228094    -1.455521167961
    H           -3.757083996164    -1.912574931263    -0.094723747857
    C            2.362032533110    -1.649126270382     0.387496271716
    H            2.956475092892    -1.573969722539     1.299052931473
    H            2.654514429083    -2.564981878932    -0.126643437930
    H            1.318793512397    -1.747857254565     0.682981647609
    C           -2.874144956564     0.019005788740     0.356854514496
    H           -2.797889723514    -0.153154292388     1.434063376916
    H           -3.826371826911     0.527847459903     0.191373079067
    C            2.588952128565    -0.422401278129    -0.492326798845
    H            3.648243217273    -0.379782409036    -0.752811713113
    H            2.048654729933    -0.535452050211    -1.436886877282
    C           -1.736488595913     0.937520238519    -0.083409312343
    H           -1.840591234178     1.905271283553     0.415559291044
    H           -1.824730002429     1.131137153562    -1.157685137867
    C           -0.347811476817     0.381182090709     0.210476485167
    H           -0.207823901681    -0.555938199070    -0.331534314668
    H           -0.272207018515     0.143785577001     1.277520406412
    C            0.756990190360     1.358360641932    -0.173465046344
    H            0.700228582274     1.546914054697    -1.250632442405
    H            0.565105525879     2.317294621126     0.317330683471
    C            2.173390123467     0.898644061047     0.170693969242
    H            2.865182621710     1.689207751585    -0.128141290825
    H            2.269886116433     0.801444368684     1.256781027567

*** Psi4 exiting successfully. Buy a developer a beer!
