                              Psi4 1.0.0 Driver

  ==> Input File <==

--------------------------------------------------------------------------
memory 30 Gb

molecule molecule_72_psi {
0 1
C           -1.229036926425     1.944062562034    -0.003175871945
H           -1.685343447093     2.357485526090     0.897470738311
H           -1.146560858362     2.748995305272    -0.734315127320
H           -0.221793319071     1.624613960865     0.257169258673
C            2.707221648134     0.965439468986     0.364969603663
H            2.266031915028     0.871726122277     1.356935446399
H            2.242048657499     1.819996631320    -0.128813480021
H            3.765149261389     1.192210410061     0.496027575265
C           -2.076907943685     0.792876532799    -0.537962256499
H           -1.675955644334     0.433599320917    -1.489256273465
H           -3.073019424417     1.182182256856    -0.759175546406
C            2.514259661542    -0.303011354914    -0.459976227983
H            3.018704442490    -0.181748530304    -1.421217350382
H            3.000001423742    -1.145236538398     0.041010200141
C           -2.208043986285    -0.383215954116     0.438098307050
H           -3.185089475524    -0.852062833173     0.297808593857
H           -2.202544135346     0.005038218858     1.461987853650
C           -1.155660108177    -1.488098722007     0.318638028847
H           -1.235110709524    -1.948369264402    -0.671706400697
H           -1.422957080531    -2.267719965267     1.036234803847
C            0.302946684633    -1.076267892162     0.557723286683
H            0.336829855782    -0.287978711831     1.313968008436
H            0.847074893175    -1.925475358930     0.981920251534
C            1.047187354653    -0.649654132681    -0.706454358049
H            0.551038839162     0.202248434158    -1.177316706891
H            0.988764272246    -1.473506840673    -1.423679779313
}

set globals {
  reference rhf
  g_convergence gau_verytight
  basis aug-cc-pvtz
  freeze_core true
  scf_type df
  mp_type df
}
optimize('mp2')
--------------------------------------------------------------------------

    Molecular point group: c1
  Charge       = 0
  Multiplicity = 1
  Basis Set: AUG-CC-PVTZ
  Basis Set:
  @DF-RHF Final Energy:  -313.53286711326336
    Total Energy =                       -313.5328671132635918
  Basis Set:
    Molecular point group: c1
  Basis Set: AUG-CC-PVTZ
  Basis Set:
  Basis Set:
	 Reference Energy          =    -313.5328671132633644 [Eh]
	 Singles Energy            =      -0.0000000000000001 [Eh]
	 Same-Spin Energy          =      -0.3175490815372974 [Eh]
	 Opposite-Spin Energy      =      -1.1275011974455607 [Eh]
	 Correlation Energy        =      -1.4450502789828581 [Eh]
	 Total Energy              =    -314.9779173922462405 [Eh]
	 SCS Total Energy          =    -314.9917182440437955 [Eh]
  Basis Set: AUG-CC-PVTZ
  Basis Set:
  @DF-RHF Final Energy:  -313.53286749662243
    Total Energy =                       -313.5328674966222025
  Basis Set:
  Basis Set: AUG-CC-PVTZ
  Basis Set:
  @DF-RHF Final Energy:  -313.53286710955638
    Total Energy =                       -313.5328671095566051
  @DF-RHF Final Energy:  -313.53286731890080
    Total Energy =                       -313.5328673189009692
  @DF-RHF Final Energy:  -313.53286736509398
    Total Energy =                       -313.5328673650940345
  @DF-RHF Final Energy:  -313.53286726592250
    Total Energy =                       -313.5328672659220501
  @DF-RHF Final Energy:  -313.53286703174183
    Total Energy =                       -313.5328670317419437
  @DF-RHF Final Energy:  -313.53286708494460
    Total Energy =                       -313.5328670849447690
  @DF-RHF Final Energy:  -313.53286711554807
    Total Energy =                       -313.5328671155481857
  @DF-RHF Final Energy:  -313.53286689785807
    Total Energy =                       -313.5328668978584119
  @DF-RHF Final Energy:  -313.53286706855675
    Total Energy =                       -313.5328670685566976
  @DF-RHF Final Energy:  -313.53286708421035
    Total Energy =                       -313.5328670842105225
  @DF-RHF Final Energy:  -313.53286708391431
    Total Energy =                       -313.5328670839140841
	 Singles Energy            =      -0.0000000000000000 [Eh]
	 Same-Spin Energy          =      -0.3175490804414499 [Eh]
	 Opposite-Spin Energy      =      -1.1275012231613353 [Eh]
	 Correlation Energy        =      -1.4450503036027853 [Eh]
	 Total Energy              =    -314.9779173875170954 [Eh]
	 SCS Total Energy          =    -314.9917182451883946 [Eh]
  Charge       = 0
  Multiplicity = 1
  Basis Set: AUG-CC-PVTZ
  Basis Set:

    Orbital Energies (a.u.)
    -----------------------

    Doubly Occupied:

       1A    -11.212828     2A    -11.212545     3A    -11.211240
       4A    -11.210641     5A    -11.210099     6A    -11.209377
       7A    -11.206891     8A    -11.205764     9A     -1.092791
      10A     -1.057501    11A     -1.007228    12A     -0.950054
      13A     -0.888401    14A     -0.827815    15A     -0.780813
      16A     -0.765418    17A     -0.646256    18A     -0.617314
      19A     -0.613368    20A     -0.593114    21A     -0.580802
      22A     -0.569080    23A     -0.539383    24A     -0.533585
      25A     -0.515178    26A     -0.500751    27A     -0.493491
      28A     -0.471699    29A     -0.463830    30A     -0.460070
      31A     -0.448870    32A     -0.434378    33A     -0.430909

  @DF-RHF Final Energy:  -313.53286711145921

   => Energetics <=

    Nuclear Repulsion Energy =            406.6838177477949898
    One-Electron Energy =               -1228.5103942744096912
    Two-Electron Energy =                 508.2937094151556039
    DFT Exchange-Correlation Energy =       0.0000000000000000
    Empirical Dispersion Energy =           0.0000000000000000
    PCM Polarization Energy =               0.0000000000000000
    EFP Energy =                            0.0000000000000000
    Total Energy =                       -313.5328671114590406
  Basis Set:
    Molecular point group: c1
  Basis Set: AUG-CC-PVTZ
  Basis Set:
  Basis Set:
	 Reference Energy          =    -313.5328671114592112 [Eh]
	 Singles Energy            =      -0.0000000000000001 [Eh]
	 Same-Spin Energy          =      -0.3175490813486969 [Eh]
	 Opposite-Spin Energy      =      -1.1275011968766719 [Eh]
	 Correlation Energy        =      -1.4450502782253691 [Eh]
	 Total Energy              =    -314.9779173896845919 [Eh]

	 ================> DF-SCS-MP2 Energies <==================
	-----------------------------------------------------------
	 SCS Same-Spin Scale       =       0.3333333333333333 [-]
	 SCS Opposite-Spin Scale   =       1.2000000000000000 [-]
	 SCS Same-Spin Energy      =      -0.1058496937828990 [Eh]
	 SCS Opposite-Spin Energy  =      -1.3530014362520062 [Eh]
	 SCS Correlation Energy    =      -1.4588511300349054 [Eh]
	 SCS Total Energy          =    -314.9917182414941408 [Eh]
	-----------------------------------------------------------

  -Total Gradient:
     Atom            X                  Y                   Z
    ------   -----------------  -----------------  -----------------
       1       -0.000000588517    -0.000001331145    -0.000000437172
       2       -0.000000531760     0.000000456670     0.000001067410
       3       -0.000000050380     0.000000862347    -0.000000862117
       4        0.000001247547    -0.000000296272     0.000000121809
       5       -0.000000016926    -0.000000599050    -0.000000414470
       6       -0.000000438393     0.000000021661     0.000000886907
       7       -0.000000366101     0.000000776559    -0.000000374684
       8        0.000000673181     0.000000038329     0.000000052101
       9        0.000000587097     0.000000670124     0.000001222470
      10        0.000000645037    -0.000000538143    -0.000001628909
      11       -0.000000719236     0.000000534520     0.000000056399
      12       -0.000000799972     0.000000812816     0.000000424066
      13        0.000000426131     0.000000220381    -0.000000818158
      14        0.000000612685    -0.000000824875     0.000000490569
      15        0.000000301132    -0.000000482103    -0.000000744387
      16       -0.000000643646    -0.000000465534    -0.000000307825
      17       -0.000000204033     0.000000436495     0.000001510996
      18       -0.000000333241     0.000000988977     0.000000444853
      19       -0.000000300665    -0.000000682078    -0.000001116633
      20       -0.000000471218    -0.000000399815     0.000000689629
      21       -0.000000088791    -0.000000844703    -0.000001678149
      22        0.000000388509     0.000001225079     0.000001241169
      23        0.000000425342    -0.000000832759     0.000000246452
      24        0.000000915130    -0.000000302393     0.000001280904
      25       -0.000000788869     0.000001265372    -0.000001050404
      26        0.000000119957    -0.000000710461    -0.000000302828

  **** Optimization is complete! (in 14 steps) ****
    Final optimized geometry and variables:
    Molecular point group: c1

    Geometry (in Angstrom), charge = 0, multiplicity = 1:

    C           -1.229037156254     1.944062440879    -0.003183742513
    H           -1.685344691290     2.357488323743     0.897461017916
    H           -1.146560400230     2.748992787362    -0.734325569591
    H           -0.221793804730     1.624614821105     0.257163504318
    C            2.707221451806     0.965440756656     0.364968780750
    H            2.266030920172     0.871730900700     1.356934593767
    H            2.242048805387     1.819996126492    -0.128817721796
    H            3.765148933900     1.192212226685     0.496026799637
    C           -2.076907463996     0.792874565025    -0.537967233821
    H           -1.675954031970     0.433594143509    -1.489259592261
    H           -3.073018734747     1.182179453750    -0.759182989812
    C            2.514260183297    -0.303013012401    -0.459972690719
    H            3.018705889417    -0.181753662386    -1.421213749827
    H            3.000001398030    -1.145236415778     0.041017216561
    C           -2.208044566905    -0.383214606064     0.438097199737
    H           -3.185089746241    -0.852062232405     0.297807756984
    H           -2.202546260084     0.005043132263     1.461985403915
    C           -1.155660298258    -1.488097581760     0.318642250529
    H           -1.235109708708    -1.948371909768    -0.671700536147
    H           -1.422957930353    -2.267716158955     1.036241694802
    C            0.302946195543    -1.076265611952     0.557727516663
    H            0.336828477319    -0.287973569705     1.313969293584
    H            0.847074084885    -1.925471405772     0.981928229494
    C            1.047188082213    -0.649656527480    -0.706450978102
    H            0.551040169697     0.202244418405    -1.177316858291
    H            0.988765583194    -1.473511823029    -1.423673461657

*** Psi4 exiting successfully. Buy a developer a beer!
