                              Psi4 1.0.0 Driver

  ==> Input File <==

--------------------------------------------------------------------------
memory 60 Gb

molecule molecule_41_psi {
0 1
C           -2.069600499668    -1.692375477439    -0.522288752410
H           -1.960362599879    -2.763126766538    -0.350726135126
H           -1.516053473693    -1.447159355929    -1.428735456273
H           -3.124437015494    -1.488604803833    -0.713653690851
C            2.714177005283    -1.350823279937     0.119319298577
H            3.005364635807    -2.124674121738    -0.590539165019
H            2.235005233654    -1.838904017893     0.969582565052
H            3.622322016817    -0.868799585348     0.483699766663
C           -1.576300797208    -0.889858295557     0.676840157372
H           -0.527876162202    -1.123836160090     0.865964529719
H           -2.126550787274    -1.209492968298     1.565155655550
C            1.775322219636    -0.330271697472    -0.512230198000
H            2.253726594841     0.128548996966    -1.382298760037
H            0.884496502027    -0.840639625222    -0.884471561708
C           -1.768611459935     0.619558024858     0.505173205357
H           -1.562823770589     1.123951236390     1.454474175468
H           -2.828125970796     0.790942164255     0.293968427263
C           -0.924259046183     1.278599797780    -0.593977982339
H           -1.479029658282     2.125042217736    -1.005133315902
H           -0.784084434002     0.586513386052    -1.427002821631
C            0.430305832785     1.808379808204    -0.117466701802
H            0.929900176537     2.301331339399    -0.957141848356
H            0.249533064524     2.584069646227     0.632513149091
C            1.377988246266     0.765202649422     0.469848077990
H            2.286155349354     1.269305728210     0.814023180621
H            0.930764266240     0.314012307902     1.360065559390
}

set globals {
  reference rhf
  g_convergence gau_verytight
  basis aug-cc-pvtz
  freeze_core true
  scf_type df
  mp_type df
}
optimize('mp2')
--------------------------------------------------------------------------

    Molecular point group: c1
  Charge       = 0
  Multiplicity = 1
  Basis Set: AUG-CC-PVTZ
  Basis Set:
  @DF-RHF Final Energy:  -313.53598737710661
    Total Energy =                       -313.5359873771066646
  Basis Set:
    Molecular point group: c1
  Basis Set: AUG-CC-PVTZ
  Basis Set:
  Basis Set:
	 Reference Energy          =    -313.5359873771066077 [Eh]
	 Singles Energy            =      -0.0000000000000001 [Eh]
	 Same-Spin Energy          =      -0.3178111118176965 [Eh]
	 Opposite-Spin Energy      =      -1.1274322392782368 [Eh]
	 Correlation Energy        =      -1.4452433510959333 [Eh]
	 Total Energy              =    -314.9812307282025472 [Eh]
	 SCS Total Energy          =    -314.9948431015130836 [Eh]
  Basis Set: AUG-CC-PVTZ
  Basis Set:
  @DF-RHF Final Energy:  -313.53598717845301
    Total Energy =                       -313.5359871784529560
  Basis Set:
  Basis Set: AUG-CC-PVTZ
  Basis Set:
  @DF-RHF Final Energy:  -313.53598758850677
    Total Energy =                       -313.5359875885068277
  @DF-RHF Final Energy:  -313.53598728684409
    Total Energy =                       -313.5359872868442608
  @DF-RHF Final Energy:  -313.53598737927598
    Total Energy =                       -313.5359873792762073
  @DF-RHF Final Energy:  -313.53598728274767
    Total Energy =                       -313.5359872827476693
  @DF-RHF Final Energy:  -313.53598732204028
    Total Energy =                       -313.5359873220404552
  @DF-RHF Final Energy:  -313.53598733229484
    Total Energy =                       -313.5359873322947237
  @DF-RHF Final Energy:  -313.53598713999457
    Total Energy =                       -313.5359871399945746
  @DF-RHF Final Energy:  -313.53598729307771
    Total Energy =                       -313.5359872930782785
  @DF-RHF Final Energy:  -313.53598730123531
    Total Energy =                       -313.5359873012354797
  @DF-RHF Final Energy:  -313.53598733561751
    Total Energy =                       -313.5359873356178468
	 Singles Energy            =      -0.0000000000000007 [Eh]
	 Same-Spin Energy          =      -0.3178111496558669 [Eh]
	 Opposite-Spin Energy      =      -1.1274322394883898 [Eh]
	 Correlation Energy        =      -1.4452433891442573 [Eh]
	 Total Energy              =    -314.9812307247617582 [Eh]
	 SCS Total Energy          =    -314.9948430728888411 [Eh]
  Charge       = 0
  Multiplicity = 1
  Basis Set: AUG-CC-PVTZ
  Basis Set:

    Orbital Energies (a.u.)
    -----------------------

    Doubly Occupied:

       1A    -11.212455     2A    -11.212037     3A    -11.211260
       4A    -11.210901     5A    -11.209631     6A    -11.209314
       7A    -11.207717     8A    -11.207316     9A     -1.094975
      10A     -1.056875    11A     -1.010189    12A     -0.946464
      13A     -0.888354    14A     -0.832022    15A     -0.790213
      16A     -0.750132    17A     -0.653366    18A     -0.628361
      19A     -0.607207    20A     -0.587863    21A     -0.580927
      22A     -0.570459    23A     -0.542480    24A     -0.525816
      25A     -0.515201    26A     -0.505459    27A     -0.493887
      28A     -0.471146    29A     -0.469626    30A     -0.460597
      31A     -0.440068    32A     -0.437727    33A     -0.435637

  @DF-RHF Final Energy:  -313.53598735419752

   => Energetics <=

    Nuclear Repulsion Energy =            408.1696656036227182
    One-Electron Energy =               -1231.4599495149741415
    Two-Electron Energy =                 509.7542965571539071
    DFT Exchange-Correlation Energy =       0.0000000000000000
    Empirical Dispersion Energy =           0.0000000000000000
    PCM Polarization Energy =               0.0000000000000000
    EFP Energy =                            0.0000000000000000
    Total Energy =                       -313.5359873541975730
  Basis Set:
    Molecular point group: c1
  Basis Set: AUG-CC-PVTZ
  Basis Set:
  Basis Set:
	 Reference Energy          =    -313.5359873541975162 [Eh]
	 Singles Energy            =      -0.0000000000000002 [Eh]
	 Same-Spin Energy          =      -0.3178111368498360 [Eh]
	 Opposite-Spin Energy      =      -1.1274322353138571 [Eh]
	 Correlation Energy        =      -1.4452433721636933 [Eh]
	 Total Energy              =    -314.9812307263612183 [Eh]

	 ================> DF-SCS-MP2 Energies <==================
	-----------------------------------------------------------
	 SCS Same-Spin Scale       =       0.3333333333333333 [-]
	 SCS Opposite-Spin Scale   =       1.2000000000000000 [-]
	 SCS Same-Spin Energy      =      -0.1059370456166120 [Eh]
	 SCS Opposite-Spin Energy  =      -1.3529186823766284 [Eh]
	 SCS Correlation Energy    =      -1.4588557279932406 [Eh]
	 SCS Total Energy          =    -314.9948430821907550 [Eh]
	-----------------------------------------------------------

  -Total Gradient:
     Atom            X                  Y                   Z
    ------   -----------------  -----------------  -----------------
       1        0.000000206942     0.000000144653     0.000000221731
       2        0.000000026290    -0.000000262789     0.000000065858
       3        0.000000093028     0.000000049450    -0.000000229692
       4       -0.000000218767     0.000000029343    -0.000000051720
       5       -0.000000331860     0.000000267193    -0.000000209970
       6        0.000000127115    -0.000000302050    -0.000000266304
       7       -0.000000158190    -0.000000183342     0.000000347172
       8        0.000000470420     0.000000187314     0.000000210575
       9       -0.000000061409     0.000000237488    -0.000000343858
      10        0.000000405913    -0.000000120117     0.000000162055
      11       -0.000000156564    -0.000000003472     0.000000125677
      12        0.000000355509     0.000000106015     0.000000799660
      13        0.000000332240     0.000000191813    -0.000000423130
      14       -0.000000585521    -0.000000334235    -0.000000330403
      15        0.000000055262    -0.000000098981    -0.000000180547
      16        0.000000075988     0.000000123409     0.000000150258
      17       -0.000000058218     0.000000026799    -0.000000043653
      18        0.000000003354     0.000000170369     0.000000614948
      19       -0.000000116980     0.000000162096    -0.000000027135
      20       -0.000000163520    -0.000000348578    -0.000000401808
      21       -0.000000217969    -0.000000416686     0.000000077571
      22        0.000000193374     0.000000229525    -0.000000421483
      23       -0.000000001489     0.000000336122     0.000000400000
      24       -0.000000223792    -0.000000099209    -0.000000982035
      25        0.000000444936     0.000000309917     0.000000064093
      26       -0.000000496093    -0.000000402046     0.000000672143

  **** Optimization is complete! (in 13 steps) ****
    Final optimized geometry and variables:
    Molecular point group: c1

    Geometry (in Angstrom), charge = 0, multiplicity = 1:

    C           -2.069601852600    -1.692376474666    -0.522286622398
    H           -1.960361556736    -2.763127851734    -0.350724859775
    H           -1.516061507917    -1.447160043903    -1.428737284664
    H           -3.124439875222    -1.488607320331    -0.713644923440
    C            2.714170532240    -1.350826901223     0.119322534126
    H            3.005365754676    -2.124673547769    -0.590538117624
    H            2.234985207971    -1.838912985973     0.969575441963
    H            3.622312663806    -0.868809436077     0.483719808857
    C           -1.576295734348    -0.889858481970     0.676839160040
    H           -0.527869419668    -1.123833251339     0.865954367363
    H           -2.126537030943    -1.209495558081     1.565159049895
    C            1.775328018230    -0.330267125993    -0.512232102331
    H            2.253745167330     0.128555736067    -1.382292965971
    H            0.884503541973    -0.840628336973    -0.884487071558
    C           -1.768608555210     0.619557547134     0.505175431295
    H           -1.562815538276     1.123949073442     1.454475240783
    H           -2.828123164960     0.790943460434     0.293976178971
    C           -0.924260970090     1.278598452134    -0.593978385534
    H           -1.479033522757     2.125038945708    -1.005134930094
    H           -0.784088382852     0.586509587053    -1.427000528324
    C            0.430303742495     1.808380240785    -0.117469666055
    H            0.929896728717     2.301331110630    -0.957145787092
    H            0.249531358817     2.584070784096     0.632509373499
    C            1.377986586377     0.765204896646     0.469846241646
    H            2.286151250443     1.269309282121     0.814026317211
    H            0.930759124567     0.314012553071     1.360061063504

*** Psi4 exiting successfully. Buy a developer a beer!
