                              Psi4 1.0.0 Driver

  ==> Input File <==

--------------------------------------------------------------------------
memory 30 Gb

molecule molecule_56_psi {
0 1
symmetry c1
    C            3.380595553711    -1.146402535793    -0.120133062840
    H            4.189977334186    -0.505108896726    -0.465445550983
    H            2.984710078009    -1.674964475701    -0.985744365275
    H            3.801866119225    -1.883289271923     0.559863871426
    C           -3.604315536600    -0.265230099942     0.275262304018
    H           -3.645640683938     0.792557328988     0.029354662130
    H           -3.526006935207    -0.354942295685     1.357917449298
    H           -4.548643649263    -0.710401656285    -0.029823534720
    C            2.293961048411    -0.325083223341     0.546663329581
    H            2.693998518246     0.167241786450     1.434648772069
    H            1.494406000159    -0.978752734285     0.892647489956
    C           -2.431899938735    -0.951958238734    -0.403299976391
    H           -2.498551806369    -2.026544158835    -0.231781225989
    H           -2.496910509757    -0.805552655798    -1.483210713271
    C            1.724195575684     0.739053993207    -0.376469270158
    H            1.413512730197     0.273311251938    -1.315642109227
    H            2.527872685259     1.430616453953    -0.633395008900
    C            0.545367012297     1.506722692043     0.222362093251
    H            0.622193087579     2.563069402216    -0.035017740597
    H            0.600623476406     1.450656037958     1.312157987354
    C           -0.816519059179     1.002184915159    -0.233348131433
    H           -1.589009818796     1.618153172675     0.227365478438
    H           -0.902482210719     1.147892358711    -1.313693355839
    C           -1.076597375632    -0.459995093976     0.080535650317
    H           -0.298897361040    -1.070076198499    -0.380068794829
    H           -0.999086663320    -0.616123148208     1.160206292190
}

set globals {
  reference rhf
  g_convergence gau_verytight
  basis aug-cc-pvtz
  freeze_core true
  scf_type df
  mp_type df
}
optimize('mp2')
--------------------------------------------------------------------------

    Molecular point group: c1
  Charge       = 0
  Multiplicity = 1
  Basis Set: AUG-CC-PVTZ
  Basis Set:
  @DF-RHF Final Energy:  -313.53842020660159
    Total Energy =                       -313.5384202066021544
  Basis Set:
    Molecular point group: c1
  Basis Set: AUG-CC-PVTZ
  Basis Set:
  Basis Set:
	 Reference Energy          =    -313.5384202066015860 [Eh]
	 Singles Energy            =      -0.0000000000000000 [Eh]
	 Same-Spin Energy          =      -0.3167049224025169 [Eh]
	 Opposite-Spin Energy      =      -1.1252142034984765 [Eh]
	 Correlation Energy        =      -1.4419191259009934 [Eh]
	 Total Energy              =    -314.9803393325025809 [Eh]
	 SCS Total Energy          =    -314.9942455582672665 [Eh]
  Basis Set: AUG-CC-PVTZ
  Basis Set:
  @DF-RHF Final Energy:  -313.53881211372919
    Total Energy =                       -313.5388121137296480
  Basis Set:
  Basis Set: AUG-CC-PVTZ
  Basis Set:
  @DF-RHF Final Energy:  -313.53874056291642
    Total Energy =                       -313.5387405629159048
  @DF-RHF Final Energy:  -313.53882313690087
    Total Energy =                       -313.5388231369015557
  @DF-RHF Final Energy:  -313.53883931275635
    Total Energy =                       -313.5388393127562381
  @DF-RHF Final Energy:  -313.53883459014452
    Total Energy =                       -313.5388345901445746
  @DF-RHF Final Energy:  -313.53883677505866
    Total Energy =                       -313.5388367750584848
  @DF-RHF Final Energy:  -313.53883534191812
    Total Energy =                       -313.5388353419187979
  @DF-RHF Final Energy:  -313.53883486873440
    Total Energy =                       -313.5388348687355347
  @DF-RHF Final Energy:  -313.53883474929876
    Total Energy =                       -313.5388347492986441
  @DF-RHF Final Energy:  -313.53883443583987
    Total Energy =                       -313.5388344358395329
  @DF-RHF Final Energy:  -313.53883493503213
    Total Energy =                       -313.5388349350324688
  @DF-RHF Final Energy:  -313.53883472712783
    Total Energy =                       -313.5388347271274370
  @DF-RHF Final Energy:  -313.53883472687210
    Total Energy =                       -313.5388347268723237
  @DF-RHF Final Energy:  -313.53883465873116
    Total Energy =                       -313.5388346587305932
  @DF-RHF Final Energy:  -313.53883486279233
    Total Energy =                       -313.5388348627927257
  @DF-RHF Final Energy:  -313.53883437006795
    Total Energy =                       -313.5388343700680025
  @DF-RHF Final Energy:  -313.53883468132847
    Total Energy =                       -313.5388346813287512
  @DF-RHF Final Energy:  -313.53883485817238
    Total Energy =                       -313.5388348581723221
  @DF-RHF Final Energy:  -313.53883453241338
    Total Energy =                       -313.5388345324136026
  @DF-RHF Final Energy:  -313.53883463198980
    Total Energy =                       -313.5388346319898574
	 Singles Energy            =      -0.0000000000000001 [Eh]
	 Same-Spin Energy          =      -0.3162569291565089 [Eh]
	 Opposite-Spin Energy      =      -1.1255248474026116 [Eh]
	 Correlation Energy        =      -1.4417817765591205 [Eh]
	 Total Energy              =    -314.9806164085489399 [Eh]
	 SCS Total Energy          =    -314.9948834252584220 [Eh]
  Charge       = 0
  Multiplicity = 1
  Basis Set: AUG-CC-PVTZ
  Basis Set:

    Orbital Energies (a.u.)
    -----------------------

    Doubly Occupied:

       1A    -11.213115     2A    -11.211248     3A    -11.210736
       4A    -11.210388     5A    -11.209917     6A    -11.209701
       7A    -11.206665     8A    -11.206663     9A     -1.093825
      10A     -1.059073    11A     -1.009776    12A     -0.944640
      13A     -0.889064    14A     -0.824351    15A     -0.785336
      16A     -0.764704    17A     -0.648528    18A     -0.620557
      19A     -0.609150    20A     -0.596747    21A     -0.578855
      22A     -0.560866    23A     -0.547550    24A     -0.528979
      25A     -0.518987    26A     -0.496289    27A     -0.484480
      28A     -0.475034    29A     -0.467678    30A     -0.462020
      31A     -0.452295    32A     -0.434731    33A     -0.432329

  @DF-RHF Final Energy:  -313.53883463163288

   => Energetics <=

    Nuclear Repulsion Energy =            393.7860677903398710
    One-Electron Energy =               -1202.7212476140784929
    Two-Electron Energy =                 495.3963451921058549
    DFT Exchange-Correlation Energy =       0.0000000000000000
    Empirical Dispersion Energy =           0.0000000000000000
    PCM Polarization Energy =               0.0000000000000000
    EFP Energy =                            0.0000000000000000
    Total Energy =                       -313.5388346316327670
  Basis Set:
    Molecular point group: c1
  Basis Set: AUG-CC-PVTZ
  Basis Set:
  Basis Set:
	 Reference Energy          =    -313.5388346316328807 [Eh]
	 Singles Energy            =      -0.0000000000000001 [Eh]
	 Same-Spin Energy          =      -0.3162568957247988 [Eh]
	 Opposite-Spin Energy      =      -1.1255248754155283 [Eh]
	 Correlation Energy        =      -1.4417817711403269 [Eh]
	 Total Energy              =    -314.9806164027731938 [Eh]

	 ================> DF-SCS-MP2 Energies <==================
	-----------------------------------------------------------
	 SCS Same-Spin Scale       =       0.3333333333333333 [-]
	 SCS Opposite-Spin Scale   =       1.2000000000000000 [-]
	 SCS Same-Spin Energy      =      -0.1054189652415996 [Eh]
	 SCS Opposite-Spin Energy  =      -1.3506298504986338 [Eh]
	 SCS Correlation Energy    =      -1.4560488157402334 [Eh]
	 SCS Total Energy          =    -314.9948834473731267 [Eh]
	-----------------------------------------------------------

  -Total Gradient:
     Atom            X                  Y                   Z
    ------   -----------------  -----------------  -----------------
       1        0.000000199051     0.000000015127    -0.000000002865
       2       -0.000000137960    -0.000000103646     0.000000051701
       3        0.000000016219     0.000000100390     0.000000143389
       4       -0.000000047416     0.000000145283    -0.000000088531
       5       -0.000000120101    -0.000000018573     0.000000098871
       6        0.000000034525    -0.000000029345    -0.000000054386
       7        0.000000017336    -0.000000032793    -0.000000051536
       8       -0.000000008791    -0.000000003604     0.000000000197
       9       -0.000000242303    -0.000000015252     0.000000096783
      10       -0.000000092499    -0.000000073746    -0.000000202517
      11        0.000000183595     0.000000093328    -0.000000002468
      12       -0.000000001195    -0.000000225863    -0.000000141430
      13        0.000000013660     0.000000081224     0.000000007482
      14        0.000000026450    -0.000000007962     0.000000060233
      15        0.000000056896    -0.000000079414     0.000000074918
      16        0.000000021822     0.000000049901     0.000000047186
      17        0.000000028907    -0.000000032974     0.000000006304
      18        0.000000139087    -0.000000025500    -0.000000039996
      19       -0.000000011685     0.000000123295    -0.000000032300
      20        0.000000005398    -0.000000046453     0.000000062820
      21       -0.000000232118     0.000000025447    -0.000000087771
      22        0.000000101057     0.000000002936    -0.000000006142
      23       -0.000000000921    -0.000000003870     0.000000007354
      24        0.000000201235     0.000000003926     0.000000187428
      25       -0.000000092738     0.000000093430    -0.000000021455
      26       -0.000000057512    -0.000000035291    -0.000000113265

  **** Optimization is complete! (in 22 steps) ****
    Final optimized geometry and variables:
    Molecular point group: c1

    Geometry (in Angstrom), charge = 0, multiplicity = 1:

    C            3.418133113257    -1.149603646863    -0.122768484439
    H            4.234641894555    -0.492050112031    -0.424523359455
    H            3.058028063525    -1.661341578667    -1.016380990740
    H            3.824941178745    -1.901439624977     0.553081855156
    C           -3.622392463136    -0.245412277811     0.350921373389
    H           -3.651825317268     0.823214761171     0.142748647199
    H           -3.521685801683    -0.373133065451     1.430046702092
    H           -4.583224855423    -0.664591715211     0.053127679163
    C            2.296206947874    -0.352744671945     0.530473570582
    H            2.663577997164     0.124269019817     1.443078944327
    H            1.494359175580    -1.026069305026     0.838155810417
    C           -2.473195572777    -0.932205710037    -0.379574324299
    H           -2.546104305897    -2.010806883225    -0.223515258823
    H           -2.570892915909    -0.768156327176    -1.456446948979
    C            1.742880575096     0.728517001968    -0.393798892858
    H            1.445438312847     0.275248148781    -1.345796789789
    H            2.557998553831     1.417636257464    -0.629917202364
    C            0.556488073398     1.505905548201     0.193270758792
    H            0.636674918113     2.560316131161    -0.079359688272
    H            0.607925919257     1.467964833041     1.286114877427
    C           -0.812061349359     1.001193780042    -0.265324399360
    H           -1.583361731514     1.635292111647     0.177704779430
    H           -0.889617657639     1.129004232255    -1.350527629750
    C           -1.093033550922    -0.458343967235     0.073599251119
    H           -0.333872352685    -1.088831042945    -0.395531696910
    H           -0.998096728329    -0.605132383132     1.155124066537

*** Psi4 exiting successfully. Buy a developer a beer!
