                              Psi4 1.0.0 Driver

  ==> Input File <==

--------------------------------------------------------------------------
memory 60 Gb

molecule molecule_29_psi {
0 1
C            0.770792233362     3.582961872610     0.236603229649
H            0.713303411477     4.671150555738     0.243610008772
H            1.335226486136     3.288036509190    -0.647134085456
H            1.339007019542     3.271750624778     1.114958860101
C           -0.770766606863    -3.582969721326     0.236761380796
H           -0.713261917027    -4.671157531902     0.243802106736
H           -1.335268947022    -3.288083897395    -0.646945563712
H           -1.338922635163    -3.271735913508     1.115147274506
C           -0.619771512706     2.956886848127     0.247743324827
H           -1.159998980288     3.246719974786    -0.657792781153
H           -1.187540667553     3.358295178627     1.090104913597
C            0.619789608462    -2.956875525076     0.247779305208
H            1.187626331506    -3.358256386331     1.090108544260
H            1.159953253700    -3.246725733008    -0.657789697013
C           -0.591153237735     1.433347669088     0.346555317191
H           -1.615671461329     1.057325331219     0.430970783038
H           -0.077515730760     1.148553960954     1.268929546970
C            0.077149179234     0.759648876790    -0.848463781582
H            1.141957573546     1.006840445117    -0.868980327279
H           -0.356550533628     1.167103846587    -1.767187981310
C           -0.077205023244    -0.759665534202    -0.848440764216
H           -1.142014346613    -1.006856967821    -0.868892720184
H            0.356444485389    -1.167143652471    -1.767178207126
C            0.591162944631    -1.433333864615     0.346558152953
H            1.615682819932    -1.057302094352     0.430910228949
H            0.077572591450    -1.148521649056     1.268953082119
}

set globals {
  reference rhf
  g_convergence gau_verytight
  basis aug-cc-pvtz
  freeze_core true
  scf_type df
  mp_type df
}
optimize('mp2')
--------------------------------------------------------------------------

    Molecular point group: c1
  Charge       = 0
  Multiplicity = 1
  Basis Set: AUG-CC-PVTZ
  Basis Set:
  @DF-RHF Final Energy:  -313.54206121519525
    Total Energy =                       -313.5420612151954742
  Basis Set:
    Molecular point group: c1
  Basis Set: AUG-CC-PVTZ
  Basis Set:
  Basis Set:
	 Reference Energy          =    -313.5420612151952469 [Eh]
	 Singles Energy            =      -0.0000000000000004 [Eh]
	 Same-Spin Energy          =      -0.3160276036972867 [Eh]
	 Opposite-Spin Energy      =      -1.1250441730796696 [Eh]
	 Correlation Energy        =      -1.4410717767769567 [Eh]
	 Total Energy              =    -314.9831329919721838 [Eh]
	 SCS Total Energy          =    -314.9974567574566322 [Eh]
  Basis Set: AUG-CC-PVTZ
  Basis Set:
  @DF-RHF Final Energy:  -313.54206146999951
    Total Energy =                       -313.5420614699998509
  Basis Set:
  Basis Set: AUG-CC-PVTZ
  Basis Set:
  @DF-RHF Final Energy:  -313.54206111751955
    Total Energy =                       -313.5420611175194949
  @DF-RHF Final Energy:  -313.54206119706538
    Total Energy =                       -313.5420611970653226
  @DF-RHF Final Energy:  -313.54206113066994
    Total Energy =                       -313.5420611306700494
  @DF-RHF Final Energy:  -313.54206118356871
    Total Energy =                       -313.5420611835687623
  @DF-RHF Final Energy:  -313.54206075230820
    Total Energy =                       -313.5420607523081458
  @DF-RHF Final Energy:  -313.54206117101387
    Total Energy =                       -313.5420611710138132
  @DF-RHF Final Energy:  -313.54206116590791
    Total Energy =                       -313.5420611659078531
  @DF-RHF Final Energy:  -313.54206114148667
    Total Energy =                       -313.5420611414866698
  @DF-RHF Final Energy:  -313.54206114311665
    Total Energy =                       -313.5420611431170528
  @DF-RHF Final Energy:  -313.54206116573766
    Total Energy =                       -313.5420611657376639
  @DF-RHF Final Energy:  -313.54206097957484
    Total Energy =                       -313.5420609795745577
  @DF-RHF Final Energy:  -313.54206116603342
    Total Energy =                       -313.5420611660335339
  @DF-RHF Final Energy:  -313.54206107927200
    Total Energy =                       -313.5420610792723437
  @DF-RHF Final Energy:  -313.54206116621384
    Total Energy =                       -313.5420611662136707
  @DF-RHF Final Energy:  -313.54206114902127
    Total Energy =                       -313.5420611490212650
  @DF-RHF Final Energy:  -313.54206112884003
    Total Energy =                       -313.5420611288399755
  @DF-RHF Final Energy:  -313.54206104851664
    Total Energy =                       -313.5420610485165298
  @DF-RHF Final Energy:  -313.54206117184492
    Total Energy =                       -313.5420611718452051
  @DF-RHF Final Energy:  -313.54206093457856
    Total Energy =                       -313.5420609345778757
  @DF-RHF Final Energy:  -313.54206118517789
    Total Energy =                       -313.5420611851779995
  @DF-RHF Final Energy:  -313.54206100040142
    Total Energy =                       -313.5420610004013611
  @DF-RHF Final Energy:  -313.54206178301354
    Total Energy =                       -313.5420617830134233
  @DF-RHF Final Energy:  -313.54206119788512
    Total Energy =                       -313.5420611978847774
  @DF-RHF Final Energy:  -313.54206116483437
    Total Energy =                       -313.5420611648344220
  @DF-RHF Final Energy:  -313.54206116772707
    Total Energy =                       -313.5420611677269562
  @DF-RHF Final Energy:  -313.54206110416760
    Total Energy =                       -313.5420611041676011
  @DF-RHF Final Energy:  -313.54206117506601
    Total Energy =                       -313.5420611750659532
  @DF-RHF Final Energy:  -313.54206117093344
    Total Energy =                       -313.5420611709335503
  @DF-RHF Final Energy:  -313.54206123280454
    Total Energy =                       -313.5420612328049401
  @DF-RHF Final Energy:  -313.54206119643692
    Total Energy =                       -313.5420611964369755
  @DF-RHF Final Energy:  -313.54206080602609
    Total Energy =                       -313.5420608060261998
  @DF-RHF Final Energy:  -313.54206121840775
    Total Energy =                       -313.5420612184078095
  @DF-RHF Final Energy:  -313.54206121800627
    Total Energy =                       -313.5420612180062676
  @DF-RHF Final Energy:  -313.54206119565521
    Total Energy =                       -313.5420611956555490
  @DF-RHF Final Energy:  -313.54206114890991
    Total Energy =                       -313.5420611489097382
  @DF-RHF Final Energy:  -313.54206117425150
    Total Energy =                       -313.5420611742518417
  @DF-RHF Final Energy:  -313.54206102615598
    Total Energy =                       -313.5420610261562615
	 Singles Energy            =      -0.0000000000000002 [Eh]
	 Same-Spin Energy          =      -0.3160276616373793 [Eh]
	 Opposite-Spin Energy      =      -1.1250443046442240 [Eh]
	 Correlation Energy        =      -1.4410719662816034 [Eh]
	 Total Energy              =    -314.9831329924375609 [Eh]
	 SCS Total Energy          =    -314.9974567456081900 [Eh]
  Charge       = 0
  Multiplicity = 1
  Basis Set: AUG-CC-PVTZ
  Basis Set:

    Orbital Energies (a.u.)
    -----------------------

    Doubly Occupied:

       1A    -11.212549     2A    -11.212549     3A    -11.210201
       4A    -11.209891     5A    -11.209504     6A    -11.209203
       7A    -11.206345     8A    -11.206345     9A     -1.094423
      10A     -1.060780    11A     -1.008430    12A     -0.941505
      13A     -0.890974    14A     -0.828771    15A     -0.787805
      16A     -0.755026    17A     -0.645373    18A     -0.624096
      19A     -0.608875    20A     -0.593345    21A     -0.588944
      22A     -0.565765    23A     -0.535661    24A     -0.528567
      25A     -0.519884    26A     -0.497859    27A     -0.491643
      28A     -0.470586    29A     -0.467639    30A     -0.459748
      31A     -0.446650    32A     -0.438889    33A     -0.434563

  @DF-RHF Final Energy:  -313.54206120905775

   => Energetics <=

    Nuclear Repulsion Energy =            390.6197120218728855
    One-Electron Energy =               -1196.3987716120898313
    Two-Electron Energy =                 492.2369983811594238
    DFT Exchange-Correlation Energy =       0.0000000000000000
    Empirical Dispersion Energy =           0.0000000000000000
    PCM Polarization Energy =               0.0000000000000000
    EFP Energy =                            0.0000000000000000
    Total Energy =                       -313.5420612090575787
  Basis Set:
    Molecular point group: c1
  Basis Set: AUG-CC-PVTZ
  Basis Set:
  Basis Set:
	 Reference Energy          =    -313.5420612090577492 [Eh]
	 Singles Energy            =      -0.0000000000000003 [Eh]
	 Same-Spin Energy          =      -0.3160276060557622 [Eh]
	 Opposite-Spin Energy      =      -1.1250441730084084 [Eh]
	 Correlation Energy        =      -1.4410717790641709 [Eh]
	 Total Energy              =    -314.9831329881218949 [Eh]

	 ================> DF-SCS-MP2 Energies <==================
	-----------------------------------------------------------
	 SCS Same-Spin Scale       =       0.3333333333333333 [-]
	 SCS Opposite-Spin Scale   =       1.2000000000000000 [-]
	 SCS Same-Spin Energy      =      -0.1053425353519207 [Eh]
	 SCS Opposite-Spin Energy  =      -1.3500530076100901 [Eh]
	 SCS Correlation Energy    =      -1.4553955429620111 [Eh]
	 SCS Total Energy          =    -314.9974567520197866 [Eh]
	-----------------------------------------------------------

  -Total Gradient:
     Atom            X                  Y                   Z
    ------   -----------------  -----------------  -----------------
       1        0.000000698818     0.000000241264    -0.000000258181
       2        0.000000173735    -0.000000524705    -0.000000019512
       3       -0.000000427965     0.000000109609     0.000000627781
       4       -0.000000430189     0.000000167663    -0.000000531160
       5       -0.000000508948    -0.000000622603     0.000000041461
       6       -0.000000193521     0.000000670951     0.000000041976
       7        0.000000529600    -0.000000356935     0.000000686822
       8        0.000000378962    -0.000000157741    -0.000000538814
       9       -0.000000937412    -0.000000023896     0.000000337715
      10        0.000000384756    -0.000000272666     0.000000624786
      11        0.000000260019    -0.000000263184    -0.000000591066
      12        0.000000944832    -0.000000126926    -0.000000459915
      13       -0.000000324112     0.000000238775    -0.000000630291
      14       -0.000000470277     0.000000171352     0.000000762223
      15       -0.000000229767    -0.000000422480     0.000000974457
      16        0.000001284689     0.000000262275    -0.000000144521
      17       -0.000000521711     0.000000345034    -0.000001006652
      18        0.000001006052     0.000000586332    -0.000000952816
      19       -0.000001270601    -0.000000298950     0.000000045234
      20        0.000000629590    -0.000000368513     0.000000805372
      21       -0.000000994965    -0.000000544123    -0.000000511017
      22        0.000001770726     0.000000552608     0.000000118900
      23       -0.000000685687     0.000000308255     0.000000894147
      24       -0.000000068457     0.000000763309     0.000000920950
      25       -0.000001377636    -0.000000244269    -0.000000163684
      26        0.000000379468    -0.000000190431    -0.000001074195

  **** Optimization is complete! (in 40 steps) ****
    Final optimized geometry and variables:
    Molecular point group: c1

    Geometry (in Angstrom), charge = 0, multiplicity = 1:

    C            0.770791068015     3.582962047231     0.236604991351
    H            0.713302040132     4.671150851722     0.243610888687
    H            1.335227809358     3.288036223073    -0.647130349832
    H            1.339003445617     3.271751498385     1.114962524592
    C           -0.770767932475    -3.582969289507     0.236758008534
    H           -0.713263743482    -4.671157035310     0.243800725981
    H           -1.335265728798    -3.288084683626    -0.646952362500
    H           -1.338928400612    -3.271733890371     1.115140561069
    C           -0.619772574303     2.956886622094     0.247741581082
    H           -1.159997942320     3.246719489919    -0.657796146300
    H           -1.187544186546     3.358294606145     1.090101725890
    C            0.619788501805    -2.956875802347     0.247782225358
    H            1.187620973080    -3.358256492794     1.090114585585
    H            1.159956296857    -3.246727028421    -0.657784019265
    C           -0.591153456235     1.433347719569     0.346553569824
    H           -1.615671454958     1.057324554136     0.430966245727
    H           -0.077517913291     1.148554169858     1.268928903986
    C            0.077152029334     0.759649100898    -0.848463894305
    H            1.141960339105     1.006840482786    -0.868978080969
    H           -0.356545812971     1.167103479079    -1.767189476670
    C           -0.077202151620    -0.759665447301    -0.848440252444
    H           -1.142011141240    -1.006856902847    -0.868894969353
    H            0.356449653760    -1.167143869457    -1.767176896521
    C            0.591162346897    -1.433334179172     0.346560059834
    H            1.615682086509    -1.057302913478     0.430915112074
    H            0.077569500735    -1.148521724511     1.268953532342

*** Psi4 exiting successfully. Buy a developer a beer!
