                              Psi4 1.0.0 Driver

  ==> Input File <==

--------------------------------------------------------------------------
memory 60 Gb

molecule molecule_15_psi {
0 1
C            2.937930891266     1.357440091520     0.208575547559
H            2.123752395967     1.748105283168     0.817772696746
H            2.820876844138     1.755964794793    -0.800724460597
H            3.870307193300     1.747655432074     0.615953996996
C           -2.601433779029     1.339015655943    -0.706977017320
H           -2.961074517005     2.350836685482    -0.521597859766
H           -3.297061470429     0.856466500920    -1.395817160100
H           -1.637835245501     1.418632870998    -1.210454735213
C            2.941627988309    -0.167497682452     0.186163935291
H            3.021147624864    -0.549752719656     1.207627872912
H            3.830483076414    -0.515616871902    -0.344680994344
C           -2.490024040356     0.547260807100     0.591052252924
H           -1.760404126852     1.023590540668     1.249484291673
H           -3.445102700231     0.583256070729     1.119701935104
C            1.701771231774    -0.764753375442    -0.475458890789
H            1.818093387718    -1.849937981373    -0.546899533038
H            1.627885003274    -0.392593993277    -1.502868271594
C            0.401756193211    -0.459132193530     0.259719228207
H            0.247508492006     0.621219387095     0.298569938247
H            0.484367355349    -0.800403581532     1.297888248691
C           -0.803856885964    -1.122457723947    -0.395511732677
H           -0.907101520224    -0.747194994236    -1.417452520150
H           -0.612954850605    -2.195700974383    -0.484937087649
C           -2.110298176658    -0.916845832456     0.370156590045
H           -2.921321220727    -1.412759013883    -0.171281879303
H           -2.033345622971    -1.415544661122     1.340590976475
}

set globals {
  reference rhf
  g_convergence gau_verytight
  basis aug-cc-pvtz
  freeze_core true
  scf_type df
  mp_type df
}
optimize('mp2')
--------------------------------------------------------------------------

    Molecular point group: c1
  Charge       = 0
  Multiplicity = 1
  Basis Set: AUG-CC-PVTZ
  Basis Set:
  @DF-RHF Final Energy:  -313.54184825397920
    Total Energy =                       -313.5418482539790261
  Basis Set:
    Molecular point group: c1
  Basis Set: AUG-CC-PVTZ
  Basis Set:
  Basis Set:
	 Reference Energy          =    -313.5418482539791967 [Eh]
	 Singles Energy            =      -0.0000000000000001 [Eh]
	 Same-Spin Energy          =      -0.3164086339434259 [Eh]
	 Opposite-Spin Energy      =      -1.1254237160652720 [Eh]
	 Correlation Energy        =      -1.4418323500086978 [Eh]
	 Total Energy              =    -314.9836806039879207 [Eh]
	 SCS Total Energy          =    -314.9978262579053307 [Eh]
  Basis Set: AUG-CC-PVTZ
  Basis Set:
  @DF-RHF Final Energy:  -313.54184864025632
    Total Energy =                       -313.5418486402563190
  Basis Set:
  Basis Set: AUG-CC-PVTZ
  Basis Set:
  @DF-RHF Final Energy:  -313.54184837861607
    Total Energy =                       -313.5418483786164074
  @DF-RHF Final Energy:  -313.54184832416234
    Total Energy =                       -313.5418483241621743
  @DF-RHF Final Energy:  -313.54184836909059
    Total Energy =                       -313.5418483690908715
  @DF-RHF Final Energy:  -313.54184826747070
    Total Energy =                       -313.5418482674707548
  @DF-RHF Final Energy:  -313.54184833643359
    Total Energy =                       -313.5418483364335884
  @DF-RHF Final Energy:  -313.54184828746071
    Total Energy =                       -313.5418482874608230
  @DF-RHF Final Energy:  -313.54184830071438
    Total Energy =                       -313.5418483007141504
  @DF-RHF Final Energy:  -313.54184836605071
    Total Energy =                       -313.5418483660507718
  @DF-RHF Final Energy:  -313.54184828831694
    Total Energy =                       -313.5418482883169418
	 Singles Energy            =      -0.0000000000000000 [Eh]
	 Same-Spin Energy          =      -0.3164086224214514 [Eh]
	 Opposite-Spin Energy      =      -1.1254236900890440 [Eh]
	 Correlation Energy        =      -1.4418323125104955 [Eh]
	 Total Energy              =    -314.9836806008274266 [Eh]
	 SCS Total Energy          =    -314.9978262572309404 [Eh]
  Charge       = 0
  Multiplicity = 1
  Basis Set: AUG-CC-PVTZ
  Basis Set:

    Orbital Energies (a.u.)
    -----------------------

    Doubly Occupied:

       1A    -11.212938     2A    -11.212095     3A    -11.210586
       4A    -11.210432     5A    -11.209376     6A    -11.208710
       7A    -11.206997     8A    -11.206881     9A     -1.094769
      10A     -1.061255    11A     -1.006237    12A     -0.946534
      13A     -0.887148    14A     -0.836890    15A     -0.777842
      16A     -0.756576    17A     -0.650016    18A     -0.627831
      19A     -0.609846    20A     -0.603100    21A     -0.576677
      22A     -0.554321    23A     -0.544312    24A     -0.531274
      25A     -0.512568    26A     -0.505598    27A     -0.490005
      28A     -0.474128    29A     -0.463436    30A     -0.459314
      31A     -0.450037    32A     -0.441071    33A     -0.431909

  @DF-RHF Final Energy:  -313.54184826787042

   => Energetics <=

    Nuclear Repulsion Energy =            395.5575296499018236
    One-Electron Energy =               -1206.2573390691268287
    Two-Electron Energy =                 497.1579611513543568
    DFT Exchange-Correlation Energy =       0.0000000000000000
    Empirical Dispersion Energy =           0.0000000000000000
    PCM Polarization Energy =               0.0000000000000000
    EFP Energy =                            0.0000000000000000
    Total Energy =                       -313.5418482678705914
  Basis Set:
    Molecular point group: c1
  Basis Set: AUG-CC-PVTZ
  Basis Set:
  Basis Set:
	 Reference Energy          =    -313.5418482678704208 [Eh]
	 Singles Energy            =      -0.0000000000000001 [Eh]
	 Same-Spin Energy          =      -0.3164086232996318 [Eh]
	 Opposite-Spin Energy      =      -1.1254237087562817 [Eh]
	 Correlation Energy        =      -1.4418323320559134 [Eh]
	 Total Energy              =    -314.9836805999263447 [Eh]

	 ================> DF-SCS-MP2 Energies <==================
	-----------------------------------------------------------
	 SCS Same-Spin Scale       =       0.3333333333333333 [-]
	 SCS Opposite-Spin Scale   =       1.2000000000000000 [-]
	 SCS Same-Spin Energy      =      -0.1054695410998772 [Eh]
	 SCS Opposite-Spin Energy  =      -1.3505084505075380 [Eh]
	 SCS Correlation Energy    =      -1.4559779916074151 [Eh]
	 SCS Total Energy          =    -314.9978262594778471 [Eh]
	-----------------------------------------------------------

  -Total Gradient:
     Atom            X                  Y                   Z
    ------   -----------------  -----------------  -----------------
       1        0.000000046936    -0.000000159104    -0.000000007638
       2       -0.000000094627     0.000000080112     0.000000069174
       3       -0.000000018312     0.000000079037    -0.000000131181
       4        0.000000136255     0.000000042257     0.000000050016
       5       -0.000000036040     0.000000007155     0.000000020622
       6       -0.000000008741     0.000000010958    -0.000000005927
       7        0.000000003737    -0.000000001819     0.000000004574
       8       -0.000000020456    -0.000000010952     0.000000020862
       9       -0.000000198337     0.000000122636    -0.000000046215
      10        0.000000032905    -0.000000056939     0.000000160287
      11        0.000000116745    -0.000000033001    -0.000000074841
      12        0.000000050575    -0.000000045017    -0.000000021358
      13        0.000000021547     0.000000018093     0.000000003925
      14       -0.000000057931     0.000000000141     0.000000023168
      15        0.000000166911    -0.000000040053     0.000000105380
      16       -0.000000027696    -0.000000007276    -0.000000004010
      17       -0.000000040896    -0.000000002630    -0.000000045691
      18       -0.000000301015     0.000000059757     0.000000101215
      19       -0.000000025520    -0.000000131305    -0.000000024674
      20       -0.000000013984     0.000000036368    -0.000000145204
      21        0.000000181893    -0.000000021152    -0.000000227725
      22        0.000000058009    -0.000000057372     0.000000154973
      23       -0.000000013616     0.000000077313    -0.000000019616
      24        0.000000025460     0.000000033494     0.000000004535
      25        0.000000014059     0.000000007597     0.000000009980
      26        0.000000002136    -0.000000008297     0.000000025369

  **** Optimization is complete! (in 12 steps) ****
    Final optimized geometry and variables:
    Molecular point group: c1

    Geometry (in Angstrom), charge = 0, multiplicity = 1:

    C            2.937937521564     1.357439027823     0.208565641498
    H            2.123756267691     1.748115298476     0.817752060840
    H            2.820892626862     1.755951958821    -0.800740146818
    H            3.870312713198     1.747654956553     0.615946134258
    C           -2.601441220942     1.339018163885    -0.706968266442
    H           -2.961087438905     2.350835898927    -0.521582758170
    H           -3.297066321744     0.856469551855    -1.395810988789
    H           -1.637843456977     1.418643843097    -1.210445626355
    C            2.941628292465    -0.167498985460     0.186172730848
    H            3.021138805855    -0.549742196509     1.207642113128
    H            3.830485943425    -0.515628365485    -0.344661853455
    C           -2.490026838912     0.547255776786     0.591055876812
    H           -1.760407231039     1.023583565998     1.249488955600
    H           -3.445104293718     0.583244881420     1.119707747484
    C            1.701774042471    -0.764757163269    -0.475452586290
    H            1.818094474918    -1.849943048214    -0.546884153017
    H            1.627894715647    -0.392605189960    -1.502865543040
    C            0.401755000595    -0.459126356905     0.259715543353
    H            0.247510301466     0.621226125285     0.298559889629
    H            0.484358449980    -0.800392594993     1.297887000952
    C           -0.803855802192    -1.122452164653    -0.395519044702
    H           -0.907100776126    -0.747185697822    -1.417458432024
    H           -0.612950887718    -2.195694733409    -0.484948182094
    C           -2.110297612634    -0.916848402023     0.370150052102
    H           -2.921318943242    -1.412759772243    -0.171292188902
    H           -2.033344373170    -1.415553486683     1.340581021751

*** Psi4 exiting successfully. Buy a developer a beer!
