                              Psi4 1.0.0 Driver

  ==> Input File <==

--------------------------------------------------------------------------
memory 60 Gb

molecule molecule_17_psi {
0 1
C            3.377034853767     1.062290419717    -0.488550334857
H            2.550866744771     1.725357437069    -0.742246447736
H            3.631052995049     0.488411083122    -1.381459084142
H            4.234608498455     1.685626555537    -0.236509048814
C           -3.853768948098     0.941754348884    -0.026427857874
H           -4.557399346365     0.122704217092    -0.180307688233
H           -3.774699584577     1.491406210680    -0.965299861499
H           -4.277578129306     1.613142204191     0.719961650067
C            3.014997005766     0.130692888440     0.663255196013
H            2.726582434997     0.721991201575     1.536754121919
H            3.899337692713    -0.440522248823     0.954314023072
C           -2.491357099200     0.410522618048     0.402528385622
H           -1.816169194181     1.248988558234     0.583696734891
H           -2.584734564053    -0.125524742070     1.351539633366
C            1.886069265809    -0.839104532606     0.322476491399
H            1.739256805005    -1.528509836584     1.159002340505
H            2.182746841421    -1.451422636810    -0.535446479256
C            0.557585847339    -0.157042105225     0.014535273577
H            0.653945567979     0.468654080236    -0.877360962621
H            0.304755090665     0.512178277865     0.841804864180
C           -0.568242393191    -1.161038682639    -0.209534258116
H           -0.249961308904    -1.878287992937    -0.971760800460
H           -0.725744263319    -1.735539142805     0.709084462310
C           -1.887759152270    -0.525139753865    -0.638980098427
H           -1.736010652696     0.027393107399    -1.572153089070
H           -2.612348243810    -1.314039249781    -0.861586043151
}

set globals {
  reference rhf
  g_convergence gau_verytight
  basis aug-cc-pvtz
  freeze_core true
  scf_type df
  mp_type df
}
optimize('mp2')
--------------------------------------------------------------------------

    Molecular point group: c1
  Charge       = 0
  Multiplicity = 1
  Basis Set: AUG-CC-PVTZ
  Basis Set:
  @DF-RHF Final Energy:  -313.54402190609790
    Total Energy =                       -313.5440219060978961
  Basis Set:
    Molecular point group: c1
  Basis Set: AUG-CC-PVTZ
  Basis Set:
  Basis Set:
	 Reference Energy          =    -313.5440219060978961 [Eh]
	 Singles Energy            =      -0.0000000000000000 [Eh]
	 Same-Spin Energy          =      -0.3154967294225434 [Eh]
	 Opposite-Spin Energy      =      -1.1242509425295846 [Eh]
	 Correlation Energy        =      -1.4397476719521280 [Eh]
	 Total Energy              =    -314.9837695780500439 [Eh]
	 SCS Total Energy          =    -314.9982886136075990 [Eh]
  Basis Set: AUG-CC-PVTZ
  Basis Set:
  @DF-RHF Final Energy:  -313.54402206667271
    Total Energy =                       -313.5440220666725963
  Basis Set:
  Basis Set: AUG-CC-PVTZ
  Basis Set:
  @DF-RHF Final Energy:  -313.54402202530673
    Total Energy =                       -313.5440220253068446
  @DF-RHF Final Energy:  -313.54402218675688
    Total Energy =                       -313.5440221867566493
  @DF-RHF Final Energy:  -313.54402191220254
    Total Energy =                       -313.5440219122027088
  @DF-RHF Final Energy:  -313.54402227884390
    Total Energy =                       -313.5440222788434994
  @DF-RHF Final Energy:  -313.54402196996915
    Total Energy =                       -313.5440219699692648
  @DF-RHF Final Energy:  -313.54402196006720
    Total Energy =                       -313.5440219600674823
  @DF-RHF Final Energy:  -313.54402197299373
    Total Energy =                       -313.5440219729935620
  @DF-RHF Final Energy:  -313.54402210897769
    Total Energy =                       -313.5440221089775719
  @DF-RHF Final Energy:  -313.54402221908896
    Total Energy =                       -313.5440222190887880
  @DF-RHF Final Energy:  -313.54402206064429
    Total Energy =                       -313.5440220606444086
  @DF-RHF Final Energy:  -313.54402418629923
    Total Energy =                       -313.5440241862993389
  @DF-RHF Final Energy:  -313.54402204417312
    Total Energy =                       -313.5440220441735732
  @DF-RHF Final Energy:  -313.54402217132554
    Total Energy =                       -313.5440221713255369
  @DF-RHF Final Energy:  -313.54402216186287
    Total Energy =                       -313.5440221618629835
  @DF-RHF Final Energy:  -313.54402207360340
    Total Energy =                       -313.5440220736029460
  @DF-RHF Final Energy:  -313.54402202530218
    Total Energy =                       -313.5440220253021835
  @DF-RHF Final Energy:  -313.54402212549377
    Total Energy =                       -313.5440221254939388
  @DF-RHF Final Energy:  -313.54402203238527
    Total Energy =                       -313.5440220323851008
  @DF-RHF Final Energy:  -313.54402231257728
    Total Energy =                       -313.5440223125776242
	 Singles Energy            =      -0.0000000000000001 [Eh]
	 Same-Spin Energy          =      -0.3154966659480283 [Eh]
	 Opposite-Spin Energy      =      -1.1242505915801002 [Eh]
	 Correlation Energy        =      -1.4397472575281287 [Eh]
	 Total Energy              =    -314.9837695701054372 [Eh]
	 SCS Total Energy          =    -314.9982885777894239 [Eh]
  Charge       = 0
  Multiplicity = 1
  Basis Set: AUG-CC-PVTZ
  Basis Set:

    Orbital Energies (a.u.)
    -----------------------

    Doubly Occupied:

       1A    -11.212762     2A    -11.211925     3A    -11.210581
       4A    -11.210258     5A    -11.209976     6A    -11.208822
       7A    -11.206929     8A    -11.206582     9A     -1.093851
      10A     -1.061550    11A     -1.009611    12A     -0.947432
      13A     -0.881114    14A     -0.829809    15A     -0.781974
      16A     -0.766632    17A     -0.645261    18A     -0.626525
      19A     -0.609099    20A     -0.597395    21A     -0.580818
      22A     -0.559154    23A     -0.545585    24A     -0.529833
      25A     -0.510529    26A     -0.500787    27A     -0.485453
      28A     -0.479155    29A     -0.464552    30A     -0.459769
      31A     -0.451130    32A     -0.441628    33A     -0.432558

  @DF-RHF Final Energy:  -313.54402208930293

   => Energetics <=

    Nuclear Repulsion Energy =            386.8579926371986062
    One-Electron Energy =               -1188.8659478268732528
    Two-Electron Energy =                 488.4639331003717757
    DFT Exchange-Correlation Energy =       0.0000000000000000
    Empirical Dispersion Energy =           0.0000000000000000
    PCM Polarization Energy =               0.0000000000000000
    EFP Energy =                            0.0000000000000000
    Total Energy =                       -313.5440220893029277
  Basis Set:
    Molecular point group: c1
  Basis Set: AUG-CC-PVTZ
  Basis Set:
  Basis Set:
	 Reference Energy          =    -313.5440220893029277 [Eh]
	 Singles Energy            =      -0.0000000000000001 [Eh]
	 Same-Spin Energy          =      -0.3154966961264808 [Eh]
	 Opposite-Spin Energy      =      -1.1242507900484442 [Eh]
	 Correlation Energy        =      -1.4397474861749251 [Eh]
	 Total Energy              =    -314.9837695754778792 [Eh]

	 ================> DF-SCS-MP2 Energies <==================
	-----------------------------------------------------------
	 SCS Same-Spin Scale       =       0.3333333333333333 [-]
	 SCS Opposite-Spin Scale   =       1.2000000000000000 [-]
	 SCS Same-Spin Energy      =      -0.1051655653754936 [Eh]
	 SCS Opposite-Spin Energy  =      -1.3491009480581331 [Eh]
	 SCS Correlation Energy    =      -1.4542665134336270 [Eh]
	 SCS Total Energy          =    -314.9982886027365794 [Eh]
	-----------------------------------------------------------

  -Total Gradient:
     Atom            X                  Y                   Z
    ------   -----------------  -----------------  -----------------
       1       -0.000000040262     0.000000083600    -0.000000052404
       2        0.000000055582    -0.000000059188    -0.000000007560
       3       -0.000000011737     0.000000037309     0.000000115075
       4       -0.000000052928    -0.000000021963     0.000000004320
       5       -0.000000365204     0.000000106168    -0.000000147805
       6        0.000000308625     0.000000328052     0.000000083130
       7        0.000000030381    -0.000000253946     0.000000431851
       8        0.000000145866    -0.000000248989    -0.000000263576
       9       -0.000000009851    -0.000000069005    -0.000000026957
      10        0.000000003470    -0.000000041893    -0.000000065015
      11       -0.000000008287    -0.000000032488     0.000000005347
      12        0.000000283320     0.000000239131     0.000000675458
      13       -0.000000458963    -0.000000455665    -0.000000258571
      14        0.000000104276     0.000000208396    -0.000000592371
      15        0.000000417527    -0.000000103701     0.000000194680
      16       -0.000000025495     0.000000129110    -0.000000153251
      17       -0.000000152485     0.000000162870     0.000000124872
      18       -0.000000229000     0.000000725976    -0.000000079738
      19       -0.000000098511    -0.000000294267     0.000000287700
      20        0.000000174719    -0.000000509857    -0.000000401443
      21        0.000000044164    -0.000000756811     0.000000313049
      22       -0.000000136676     0.000000390575     0.000000407660
      23        0.000000114704     0.000000352198    -0.000000517027
      24       -0.000000386369    -0.000000037348    -0.000000831344
      25       -0.000000063728    -0.000000322925     0.000000650357
      26        0.000000356855     0.000000444663     0.000000103564

  **** Optimization is complete! (in 22 steps) ****
    Final optimized geometry and variables:
    Molecular point group: c1

    Geometry (in Angstrom), charge = 0, multiplicity = 1:

    C            3.377062809212     1.062306032446    -0.488510735711
    H            2.550914172275     1.725389088537    -0.742223315145
    H            3.631098913960     0.488434003330    -1.381418160308
    H            4.234638098371     1.685624943029    -0.236436127800
    C           -3.853758258549     0.941759082640    -0.026405254025
    H           -4.557399556748     0.122707611618    -0.180225455196
    H           -3.774719660678     1.491371406321    -0.965302645687
    H           -4.277535480657     1.613180493445     0.719971666932
    C            3.014974398134     0.130699758662     0.663271976738
    H            2.726525604386     0.721990089943     1.536763772919
    H            3.899302783297    -0.440516932005     0.954361715794
    C           -2.491334601026     0.410535252110     0.402523240278
    H           -1.816135219068     1.249003371817     0.583637283449
    H           -2.584681004210    -0.125477020713     1.351556622554
    C            1.886062372532    -0.839098159376     0.322439925838
    H            1.739239865798    -1.528526052864     1.158943905130
    H            2.182760951079    -1.451390913061    -0.535492256050
    C            0.557575432098    -0.157045634554     0.014493477755
    H            0.653924786527     0.468631030962    -0.877415371294
    H            0.304748526828     0.512188941234     0.841751232434
    C           -0.568248916167    -1.161053542379    -0.209544285947
    H           -0.249977139445    -1.878311831707    -0.971765170142
    H           -0.725730408573    -1.735540304792     0.709085171857
    C           -1.887776984780    -0.525168350741    -0.638971444712
    H           -1.736054840274     0.027330978132    -1.572167610213
    H           -2.612375758875    -1.314072747665    -0.861526717877

*** Psi4 exiting successfully. Buy a developer a beer!
