                              Psi4 1.0.0 Driver

  ==> Input File <==

--------------------------------------------------------------------------
memory 60 Gb

molecule molecule_92_psi {
0 1
C           -2.378033863571     0.894208153546    -0.997646593493
H           -2.077667884973     0.616268539965    -2.009138997238
H           -1.660851061090     1.625676456309    -0.630122736799
H           -3.350006477950     1.384000724062    -1.062517011547
C            2.378092443461    -0.894305595990    -0.997416705167
H            3.350073206145    -1.384094170131    -1.062192469498
H            2.077765701822    -0.616480569379    -2.008952070004
H            1.660903080503    -1.625741702877    -0.629842450338
C           -2.446596556363    -0.343524873748    -0.106440571061
H           -3.220601012545    -1.003344309016    -0.503679962072
H           -2.775434383050    -0.060535530760     0.897920840148
C            2.446603473913     0.343525615990    -0.106343339317
H            2.775399155808     0.060650057697     0.898063792832
H            3.220618757290     1.003309600094    -0.503620613300
C           -1.128626234586    -1.124393659775    -0.004475938316
H           -0.577856904540    -1.023620375014    -0.943748843089
H           -1.351916988134    -2.188700592553     0.101099455739
C           -0.244352339315    -0.723424039007     1.177609376064
H            0.616785465472    -1.394667697430     1.229355585965
H           -0.812464997103    -0.894657023219     2.097083165747
C            0.244288434568     0.723528181272     1.177553887444
H           -0.616854090291     1.394774815759     1.229192890084
H            0.812353152241     0.894850260689     2.097040917413
C            1.128620960863     1.124392623792    -0.004523422005
H            0.577902470952     1.023523245979    -0.943816348026
H            1.351896638838     2.188711993743     0.100961672658
}

set globals {
  reference rhf
  g_convergence gau_verytight
  basis aug-cc-pvtz
  freeze_core true
  scf_type df
  mp_type df
}
optimize('mp2')
--------------------------------------------------------------------------

    Molecular point group: c1
  Charge       = 0
  Multiplicity = 1
  Basis Set: AUG-CC-PVTZ
  Basis Set:
  @DF-RHF Final Energy:  -313.53122368176440
    Total Energy =                       -313.5312236817643452
  Basis Set:
    Molecular point group: c1
  Basis Set: AUG-CC-PVTZ
  Basis Set:
  Basis Set:
	 Reference Energy          =    -313.5312236817644020 [Eh]
	 Singles Energy            =      -0.0000000000000002 [Eh]
	 Same-Spin Energy          =      -0.3181163283603395 [Eh]
	 Opposite-Spin Energy      =      -1.1282503236610504 [Eh]
	 Correlation Energy        =      -1.4463666520213903 [Eh]
	 Total Energy              =    -314.9775903337857699 [Eh]
	 SCS Total Energy          =    -314.9911628462778026 [Eh]
  Basis Set: AUG-CC-PVTZ
  Basis Set:
  @DF-RHF Final Energy:  -313.53122364724521
    Total Energy =                       -313.5312236472451559
  Basis Set:
  Basis Set: AUG-CC-PVTZ
  Basis Set:
  @DF-RHF Final Energy:  -313.53122370270586
    Total Energy =                       -313.5312237027060291
  @DF-RHF Final Energy:  -313.53122369272774
    Total Energy =                       -313.5312236927279628
  @DF-RHF Final Energy:  -313.53122369383840
    Total Energy =                       -313.5312236938382284
  @DF-RHF Final Energy:  -313.53122369332738
    Total Energy =                       -313.5312236933273198
  @DF-RHF Final Energy:  -313.53122366451771
    Total Energy =                       -313.5312236645174835
  @DF-RHF Final Energy:  -313.53122366722130
    Total Energy =                       -313.5312236672212975
  @DF-RHF Final Energy:  -313.53122363736571
    Total Energy =                       -313.5312236373657697
  @DF-RHF Final Energy:  -313.53122367025361
    Total Energy =                       -313.5312236702538939
  @DF-RHF Final Energy:  -313.53122367352069
    Total Energy =                       -313.5312236735206852
  @DF-RHF Final Energy:  -313.53122366141156
    Total Energy =                       -313.5312236614117865
  @DF-RHF Final Energy:  -313.53122360697398
    Total Energy =                       -313.5312236069737537
  @DF-RHF Final Energy:  -313.53122367129458
    Total Energy =                       -313.5312236712943559
  @DF-RHF Final Energy:  -313.53122368262501
    Total Energy =                       -313.5312236826244998
  @DF-RHF Final Energy:  -313.53122373045960
    Total Energy =                       -313.5312237304600558
  @DF-RHF Final Energy:  -313.53122371901367
    Total Energy =                       -313.5312237190136102
  @DF-RHF Final Energy:  -313.53122370275537
    Total Energy =                       -313.5312237027551419
  @DF-RHF Final Energy:  -313.53122370170070
    Total Energy =                       -313.5312237017003554
	 Singles Energy            =      -0.0000000000000001 [Eh]
	 Same-Spin Energy          =      -0.3181163267835803 [Eh]
	 Opposite-Spin Energy      =      -1.1282503084402100 [Eh]
	 Correlation Energy        =      -1.4463666352237903 [Eh]
	 Total Energy              =    -314.9775903369244929 [Eh]
	 SCS Total Energy          =    -314.9911628474234817 [Eh]
  Charge       = 0
  Multiplicity = 1
  Basis Set: AUG-CC-PVTZ
  Basis Set:

    Orbital Energies (a.u.)
    -----------------------

    Doubly Occupied:

       1A    -11.213129     2A    -11.213129     3A    -11.210821
       4A    -11.210348     5A    -11.209854     6A    -11.209715
       7A    -11.206332     8A    -11.206331     9A     -1.094412
      10A     -1.054807    11A     -1.004339    12A     -0.954681
      13A     -0.887629    14A     -0.827315    15A     -0.796517
      16A     -0.744005    17A     -0.651239    18A     -0.632439
      19A     -0.607862    20A     -0.585595    21A     -0.572708
      22A     -0.569590    23A     -0.541016    24A     -0.539889
      25A     -0.515880    26A     -0.502678    27A     -0.492269
      28A     -0.474063    29A     -0.467975    30A     -0.454222
      31A     -0.440069    32A     -0.436835    33A     -0.433765

  @DF-RHF Final Energy:  -313.53122371920358

   => Energetics <=

    Nuclear Repulsion Energy =            410.4449738907173924
    One-Electron Energy =               -1236.0294759164662537
    Two-Electron Energy =                 512.0532783065455078
    DFT Exchange-Correlation Energy =       0.0000000000000000
    Empirical Dispersion Energy =           0.0000000000000000
    PCM Polarization Energy =               0.0000000000000000
    EFP Energy =                            0.0000000000000000
    Total Energy =                       -313.5312237192033535
  Basis Set:
    Molecular point group: c1
  Basis Set: AUG-CC-PVTZ
  Basis Set:
  Basis Set:
	 Reference Energy          =    -313.5312237192035809 [Eh]
	 Singles Energy            =      -0.0000000000000000 [Eh]
	 Same-Spin Energy          =      -0.3181163236910444 [Eh]
	 Opposite-Spin Energy      =      -1.1282502912730998 [Eh]
	 Correlation Energy        =      -1.4463666149641443 [Eh]
	 Total Energy              =    -314.9775903341677008 [Eh]

	 ================> DF-SCS-MP2 Energies <==================
	-----------------------------------------------------------
	 SCS Same-Spin Scale       =       0.3333333333333333 [-]
	 SCS Opposite-Spin Scale   =       1.2000000000000000 [-]
	 SCS Same-Spin Energy      =      -0.1060387745636815 [Eh]
	 SCS Opposite-Spin Energy  =      -1.3539003495277198 [Eh]
	 SCS Correlation Energy    =      -1.4599391240914013 [Eh]
	 SCS Total Energy          =    -314.9911628432950010 [Eh]
	-----------------------------------------------------------

  -Total Gradient:
     Atom            X                  Y                   Z
    ------   -----------------  -----------------  -----------------
       1        0.000000044651     0.000000265293    -0.000000031772
       2       -0.000000037837     0.000000014932     0.000000064158
       3       -0.000000067306    -0.000000104303    -0.000000109960
       4       -0.000000029490    -0.000000002150    -0.000000006370
       5        0.000000026828    -0.000000255185    -0.000000213170
       6       -0.000000103866     0.000000062408     0.000000013436
       7        0.000000067620    -0.000000001411     0.000000034022
       8        0.000000074020     0.000000078054    -0.000000075723
       9        0.000000454524    -0.000000343335     0.000000075956
      10        0.000000015925     0.000000044796    -0.000000014722
      11       -0.000000019353     0.000000025644    -0.000000022303
      12       -0.000000115327    -0.000000032758     0.000000420739
      13       -0.000000059323     0.000000011475    -0.000000062569
      14        0.000000034821     0.000000093772    -0.000000111398
      15       -0.000000090945    -0.000000052233    -0.000000145959
      16       -0.000000212109    -0.000000016186     0.000000384277
      17        0.000000010939     0.000000292164    -0.000000086332
      18        0.000000324253    -0.000000292770    -0.000000224850
      19       -0.000000265837     0.000000113374     0.000000011882
      20        0.000000000538     0.000000053821    -0.000000090266
      21       -0.000000416264     0.000000325977     0.000000380546
      22        0.000000369335    -0.000000221914     0.000000016624
      23       -0.000000161699    -0.000000053146    -0.000000129336
      24        0.000000170975     0.000000154301    -0.000000192106
      25       -0.000000082992     0.000000016390     0.000000122378
      26        0.000000067919    -0.000000177008    -0.000000007183

  **** Optimization is complete! (in 20 steps) ****
    Final optimized geometry and variables:
    Molecular point group: c1

    Geometry (in Angstrom), charge = 0, multiplicity = 1:

    C           -2.378025670157     0.894252670384    -0.997618568796
    H           -2.077679197831     0.616296730003    -2.009112409317
    H           -1.660821265134     1.625707940974    -0.630111271671
    H           -3.349987923533     1.384067108924    -1.062481407299
    C            2.378059651970    -0.894364594402    -0.997454521976
    H            3.350022674343    -1.384187672261    -1.062227770085
    H            2.077746983408    -0.616525552498    -2.008989621809
    H            1.660842699373    -1.625775423720    -0.629885132327
    C           -2.446607162149    -0.343470644833    -0.106400720001
    H           -3.220631042441    -1.003275465790    -0.503627294651
    H           -2.775428812027    -0.060465279137     0.897961897351
    C            2.446609189880     0.343461923613    -0.106377333667
    H            2.775397650020     0.060573377746     0.898027751517
    H            3.220642050132     1.003225337379    -0.503653064510
    C           -1.128655224023    -1.124370321184    -0.004442434162
    H           -0.577898230404    -1.023627260695    -0.943726550166
    H           -1.351970970678    -2.188670055016     0.101155347895
    C           -0.244351803218    -0.723402785351     1.177621749812
    H            0.616772429029    -1.394665234462     1.229362185305
    H           -0.812453424701    -0.894612454340     2.097107103108
    C            0.244322330391     0.723538418937     1.177541926525
    H           -0.616802895242     1.394806183658     1.229184808245
    H            0.812403140066     0.894856744741     2.097019282075
    C            1.128647151825     1.124363686119    -0.004552776103
    H            0.577914156700     1.023492678753    -0.943836144921
    H            1.351950261648     2.188678834648     0.100911638603

*** Psi4 exiting successfully. Buy a developer a beer!
