                              Psi4 1.0.0 Driver

  ==> Input File <==

--------------------------------------------------------------------------
memory 60 Gb

molecule molecule_46_psi {
0 1
C            3.230125459276     0.233540303966     0.005669262265
H            4.022278690902     0.541749349083    -0.676294659142
H            3.665661860850    -0.445525303215     0.740784008445
H            2.887730816018     1.121684382903     0.536503917432
C           -2.596992627774    -1.223651145492    -0.048659699192
H           -3.556648137330    -1.592945633186     0.313993989009
H           -1.822825518195    -1.608631505663     0.611918391462
H           -2.430187278151    -1.650116571373    -1.039073360257
C            2.089553576586    -0.444898252318    -0.744931655498
H            2.489967195582    -1.265187904211    -1.344837615464
H            1.645578594604     0.259945151670    -1.452030740903
C           -2.592124237351     0.301405707157    -0.119287021488
H           -3.437889650302     0.611943291329    -0.736395329969
H           -2.772821349862     0.719663868800     0.875405654946
C            1.007373715900    -1.001601132698     0.179658850021
H            1.447561084262    -1.783397948638     0.806046557669
H            0.240780605839    -1.489994268481    -0.425847309617
C            0.358839659388     0.044765988308     1.086896950530
H            1.100397601310     0.413223056966     1.800214969012
H           -0.417491402691    -0.432435582308     1.689547737644
C           -0.230918163392     1.240586868178     0.340418550608
H           -0.657971987026     1.933360434950     1.071671676964
H            0.577044226473     1.786121438504    -0.154933074814
C           -1.308916198533     0.915190755091    -0.695275805996
H           -1.563359675707     1.848863624108    -1.202374910241
H           -0.905111732337     0.253698741687    -1.467754790952
}

set globals {
  reference rhf
  g_convergence gau_verytight
  basis aug-cc-pvtz
  freeze_core true
  scf_type df
  mp_type df
}
optimize('mp2')
--------------------------------------------------------------------------

    Molecular point group: c1
  Charge       = 0
  Multiplicity = 1
  Basis Set: AUG-CC-PVTZ
  Basis Set:
  @DF-RHF Final Energy:  -313.53443505730178
    Total Energy =                       -313.5344350573018346
  Basis Set:
    Molecular point group: c1
  Basis Set: AUG-CC-PVTZ
  Basis Set:
  Basis Set:
	 Reference Energy          =    -313.5344350573017778 [Eh]
	 Singles Energy            =      -0.0000000000000005 [Eh]
	 Same-Spin Energy          =      -0.3181675792374228 [Eh]
	 Opposite-Spin Energy      =      -1.1279586918272100 [Eh]
	 Correlation Energy        =      -1.4461262710646332 [Eh]
	 Total Energy              =    -314.9805613283664343 [Eh]
	 SCS Total Energy          =    -314.9940413472402270 [Eh]
  Basis Set: AUG-CC-PVTZ
  Basis Set:
  @DF-RHF Final Energy:  -313.53443512075194
    Total Energy =                       -313.5344351207517661
  Basis Set:
  Basis Set: AUG-CC-PVTZ
  Basis Set:
  @DF-RHF Final Energy:  -313.53443506010154
    Total Energy =                       -313.5344350601014867
  @DF-RHF Final Energy:  -313.53443502421425
    Total Energy =                       -313.5344350242141900
  @DF-RHF Final Energy:  -313.53443523131762
    Total Energy =                       -313.5344352313176159
  @DF-RHF Final Energy:  -313.53443519942982
    Total Energy =                       -313.5344351994296517
  @DF-RHF Final Energy:  -313.53443516581308
    Total Energy =                       -313.5344351658129085
  @DF-RHF Final Energy:  -313.53443519739500
    Total Energy =                       -313.5344351973950552
  @DF-RHF Final Energy:  -313.53443522905184
    Total Energy =                       -313.5344352290520646
  @DF-RHF Final Energy:  -313.53443515726144
    Total Energy =                       -313.5344351572615551
  @DF-RHF Final Energy:  -313.53443513791035
    Total Energy =                       -313.5344351379104069
  @DF-RHF Final Energy:  -313.53443529326569
    Total Energy =                       -313.5344352932657443
  @DF-RHF Final Energy:  -313.53443517422733
    Total Energy =                       -313.5344351742273830
  @DF-RHF Final Energy:  -313.53443514793366
    Total Energy =                       -313.5344351479336638
  @DF-RHF Final Energy:  -313.53443515351836
    Total Energy =                       -313.5344351535186433
  @DF-RHF Final Energy:  -313.53443510544685
    Total Energy =                       -313.5344351054468461
  @DF-RHF Final Energy:  -313.53443514130601
    Total Energy =                       -313.5344351413062896
  @DF-RHF Final Energy:  -313.53443513508159
    Total Energy =                       -313.5344351350818783
  @DF-RHF Final Energy:  -313.53443511860689
    Total Energy =                       -313.5344351186069503
  @DF-RHF Final Energy:  -313.53443510290799
    Total Energy =                       -313.5344351029079917
  @DF-RHF Final Energy:  -313.53443514312994
    Total Energy =                       -313.5344351431295991
  @DF-RHF Final Energy:  -313.53443512428947
    Total Energy =                       -313.5344351242894163
  @DF-RHF Final Energy:  -313.53443512029548
    Total Energy =                       -313.5344351202955977
  @DF-RHF Final Energy:  -313.53443512323730
    Total Energy =                       -313.5344351232376994
  @DF-RHF Final Energy:  -313.53443510843658
    Total Energy =                       -313.5344351084363552
  @DF-RHF Final Energy:  -313.53443510459152
    Total Energy =                       -313.5344351045916937
  @DF-RHF Final Energy:  -313.53443516018422
    Total Energy =                       -313.5344351601845574
  @DF-RHF Final Energy:  -313.53443516463273
    Total Energy =                       -313.5344351646328960
  @DF-RHF Final Energy:  -313.53443516701753
    Total Energy =                       -313.5344351670178185
  @DF-RHF Final Energy:  -313.53443518216665
    Total Energy =                       -313.5344351821669306
  @DF-RHF Final Energy:  -313.53443518742682
    Total Energy =                       -313.5344351874265385
  @DF-RHF Final Energy:  -313.53443521002106
    Total Energy =                       -313.5344352100210017
  @DF-RHF Final Energy:  -313.53443516788724
    Total Energy =                       -313.5344351678874091
	 Singles Energy            =      -0.0000000000000001 [Eh]
	 Same-Spin Energy          =      -0.3181675103642003 [Eh]
	 Opposite-Spin Energy      =      -1.1279586555093066 [Eh]
	 Correlation Energy        =      -1.4461261658735070 [Eh]
	 Total Energy              =    -314.9805613337607610 [Eh]
	 SCS Total Energy          =    -314.9940413912864869 [Eh]
  Charge       = 0
  Multiplicity = 1
  Basis Set: AUG-CC-PVTZ
  Basis Set:

    Orbital Energies (a.u.)
    -----------------------

    Doubly Occupied:

       1A    -11.213316     2A    -11.212187     3A    -11.210814
       4A    -11.210229     5A    -11.209647     6A    -11.209027
       7A    -11.206722     8A    -11.206439     9A     -1.095812
      10A     -1.056092    11A     -1.003246    12A     -0.950720
      13A     -0.891881    14A     -0.834953    15A     -0.789120
      16A     -0.738621    17A     -0.651097    18A     -0.639611
      19A     -0.603659    20A     -0.597093    21A     -0.575683
      22A     -0.555779    23A     -0.544818    24A     -0.533057
      25A     -0.521363    26A     -0.500952    27A     -0.492752
      28A     -0.474026    29A     -0.468388    30A     -0.457863
      31A     -0.439758    32A     -0.436357    33A     -0.433867

  @DF-RHF Final Energy:  -313.53443518192717

   => Energetics <=

    Nuclear Repulsion Energy =            408.2913208759125610
    One-Electron Energy =               -1231.7216149411058268
    Two-Electron Energy =                 509.8958588832664418
    DFT Exchange-Correlation Energy =       0.0000000000000000
    Empirical Dispersion Energy =           0.0000000000000000
    PCM Polarization Energy =               0.0000000000000000
    EFP Energy =                            0.0000000000000000
    Total Energy =                       -313.5344351819268240
  Basis Set:
    Molecular point group: c1
  Basis Set: AUG-CC-PVTZ
  Basis Set:
  Basis Set:
	 Reference Energy          =    -313.5344351819271651 [Eh]
	 Singles Energy            =      -0.0000000000000004 [Eh]
	 Same-Spin Energy          =      -0.3181674969873983 [Eh]
	 Opposite-Spin Energy      =      -1.1279586475262795 [Eh]
	 Correlation Energy        =      -1.4461261445136784 [Eh]
	 Total Energy              =    -314.9805613264408635 [Eh]

	 ================> DF-SCS-MP2 Energies <==================
	-----------------------------------------------------------
	 SCS Same-Spin Scale       =       0.3333333333333333 [-]
	 SCS Opposite-Spin Scale   =       1.2000000000000000 [-]
	 SCS Same-Spin Energy      =      -0.1060558323291328 [Eh]
	 SCS Opposite-Spin Energy  =      -1.3535503770315354 [Eh]
	 SCS Correlation Energy    =      -1.4596062093606685 [Eh]
	 SCS Total Energy          =    -314.9940413912878512 [Eh]
	-----------------------------------------------------------

  -Total Gradient:
     Atom            X                  Y                   Z
    ------   -----------------  -----------------  -----------------
       1       -0.000000480488    -0.000000300196    -0.000000270620
       2        0.000000336286     0.000000149471    -0.000000322118
       3        0.000000189750    -0.000000218255     0.000000350905
       4       -0.000000147237     0.000000428446     0.000000291968
       5        0.000000106517     0.000001221851    -0.000000023524
       6       -0.000000798758    -0.000000079331     0.000000245595
       7        0.000000870596    -0.000000731602     0.000000695270
       8        0.000000162444    -0.000000533093    -0.000000885158
       9        0.000000487531    -0.000000120870     0.000000791867
      10        0.000000174828    -0.000000243888    -0.000000134204
      11       -0.000000343025     0.000000437860    -0.000000533576
      12        0.000000403149    -0.000000821409    -0.000000491250
      13       -0.000000635525     0.000000085415    -0.000000614846
      14       -0.000000217765     0.000000477518     0.000001143547
      15       -0.000000556253     0.000001100467     0.000000045828
      16        0.000000268911    -0.000000233151     0.000000323695
      17       -0.000000652533    -0.000000471706    -0.000000511083
      18        0.000001534578    -0.000000597009    -0.000000825571
      19        0.000000374921     0.000000304771     0.000000291624
      20       -0.000000880581    -0.000000453247     0.000000595736
      21       -0.000000526414    -0.000000687283    -0.000000257813
      22       -0.000000525296     0.000000405181     0.000000562271
      23        0.000000912230     0.000000574367    -0.000000542913
      24       -0.000000404774     0.000000291484     0.000001332808
      25       -0.000000121749     0.000000621696    -0.000000191380
      26        0.000000468656    -0.000000607489    -0.000001067059

  **** Optimization is complete! (in 34 steps) ****
    Final optimized geometry and variables:
    Molecular point group: c1

    Geometry (in Angstrom), charge = 0, multiplicity = 1:

    C            3.230119820766     0.233551689870     0.005661479714
    H            4.022281208308     0.541741763290    -0.676302056848
    H            3.665647251230    -0.445495691632     0.740798850479
    H            2.887721143457     1.121710627897     0.536469475224
    C           -2.596991538242    -1.223646117421    -0.048656133115
    H           -3.556648040866    -1.592937284984     0.314000254071
    H           -1.822824405894    -1.608623587985     0.611924806952
    H           -2.430187076033    -1.650119261526    -1.039067343517
    C            2.089555427177    -0.444904382945    -0.744935071825
    H            2.489979509893    -1.265198101704    -1.344829038273
    H            1.645577935879     0.259926248698    -1.452046466945
    C           -2.592124563770     0.301410313697    -0.119293969861
    H           -3.437883647209     0.611941459423    -0.736415059790
    H           -2.772834496094     0.719675304896     0.875393765798
    C            1.007374821613    -1.001607609020     0.179655491188
    H            1.447562917986    -1.783406246632     0.806040859171
    H            0.240780787092    -1.490000341686    -0.425850660012
    C            0.358838287548     0.044756127227     1.086900635836
    H            1.100396202867     0.413209501865     1.800221117635
    H           -0.417493226610    -0.432448685019     1.689548729786
    C           -0.230918201442     1.240582551227     0.340429307241
    H           -0.657976117091     1.933349801629     1.071686173609
    H            0.577042662385     1.786120198835    -0.154913311313
    C           -1.308912024842     0.915195519459    -0.695272135872
    H           -1.563351453812     1.848873673662    -1.202364377179
    H           -0.905107269026     0.253711151904    -1.467752656264

*** Psi4 exiting successfully. Buy a developer a beer!
