                              Psi4 1.0.0 Driver

  ==> Input File <==

--------------------------------------------------------------------------
memory 60 Gb

molecule molecule_91_psi {
0 1
C            2.341577435331    -1.121853332969    -0.958621666275
H            2.519824155773    -0.415013001286    -1.770505537937
H            1.301659034781    -1.443212577636    -1.017376221023
H            2.966790214928    -1.997616580364    -1.132381943305
C           -2.720850038853    -0.894197877298     0.986736034589
H           -3.030622314436    -1.932505713845     1.107679634115
H           -3.558551509098    -0.259632677917     1.279088760651
H           -1.905528725385    -0.702486050334     1.682594824296
C            2.652910179718    -0.488783908995     0.392789488631
H            3.721805734128    -0.269880576435     0.449737529243
H            2.442910890202    -1.211708917088     1.186006511943
C           -2.314228236199    -0.598894339505    -0.454560318409
H           -1.528351619877    -1.292025640774    -0.769429083052
H           -3.170731881417    -0.799868379813    -1.100768531593
C            1.868727851153     0.791523855506     0.679181352850
H            2.141487062272     1.555259935952    -0.056145443668
H            2.187112888339     1.174548705562     1.650977862542
C            0.343958953353     0.603506034477     0.672757074855
H           -0.108492293035     1.196758448312     1.472233327758
H            0.116276807614    -0.441706800948     0.901103494985
C           -0.313076580956     1.005315367759    -0.645317705779
H           -0.061471564679     2.050754548712    -0.847700330452
H            0.118676922349     0.423300138033    -1.463502322604
C           -1.832090308412     0.843350793061    -0.674277630873
H           -2.282084701954     1.492516846443     0.083778892230
H           -2.191351127968     1.205960060615    -1.639753347637
}

set globals {
  reference rhf
  g_convergence gau_verytight
  basis aug-cc-pvtz
  freeze_core true
  scf_type df
  mp_type df
}
optimize('mp2')
--------------------------------------------------------------------------

    Molecular point group: c1
  Charge       = 0
  Multiplicity = 1
  Basis Set: AUG-CC-PVTZ
  Basis Set:
  @DF-RHF Final Energy:  -313.53366842035337
    Total Energy =                       -313.5336684203531377
  Basis Set:
    Molecular point group: c1
  Basis Set: AUG-CC-PVTZ
  Basis Set:
  Basis Set:
	 Reference Energy          =    -313.5336684203533650 [Eh]
	 Singles Energy            =      -0.0000000000000000 [Eh]
	 Same-Spin Energy          =      -0.3169371018763091 [Eh]
	 Opposite-Spin Energy      =      -1.1267896325962883 [Eh]
	 Correlation Energy        =      -1.4437267344725975 [Eh]
	 Total Energy              =    -314.9773951548259561 [Eh]
	 SCS Total Energy          =    -314.9914616800943463 [Eh]
  Basis Set: AUG-CC-PVTZ
  Basis Set:
  @DF-RHF Final Energy:  -313.53366886361192
    Total Energy =                       -313.5336688636119788
  Basis Set:
  Basis Set: AUG-CC-PVTZ
  Basis Set:
  @DF-RHF Final Energy:  -313.53366876981096
    Total Energy =                       -313.5336687698102764
  @DF-RHF Final Energy:  -313.53366859771728
    Total Energy =                       -313.5336685977171101
  @DF-RHF Final Energy:  -313.53366856300431
    Total Energy =                       -313.5336685630042552
  @DF-RHF Final Energy:  -313.53366866600663
    Total Energy =                       -313.5336686660067471
  @DF-RHF Final Energy:  -313.53366854137016
    Total Energy =                       -313.5336685413701048
  @DF-RHF Final Energy:  -313.53366853323126
    Total Energy =                       -313.5336685332310935
  @DF-RHF Final Energy:  -313.53366870962259
    Total Energy =                       -313.5336687096225319
  @DF-RHF Final Energy:  -313.53366854226363
    Total Energy =                       -313.5336685422635128
  @DF-RHF Final Energy:  -313.53366854441708
    Total Energy =                       -313.5336685444173099
  @DF-RHF Final Energy:  -313.53366943899130
    Total Energy =                       -313.5336694389914101
  @DF-RHF Final Energy:  -313.53366863423645
    Total Energy =                       -313.5336686342365056
  @DF-RHF Final Energy:  -313.53366868225049
    Total Energy =                       -313.5336686822502088
  @DF-RHF Final Energy:  -313.53366859947488
    Total Energy =                       -313.5336685994747086
  @DF-RHF Final Energy:  -313.53366850494496
    Total Energy =                       -313.5336685049447851
  @DF-RHF Final Energy:  -313.53366856120306
    Total Energy =                       -313.5336685612032852
  @DF-RHF Final Energy:  -313.53366856162182
    Total Energy =                       -313.5336685616215391
  @DF-RHF Final Energy:  -313.53366857418456
    Total Energy =                       -313.5336685741845031
	 Singles Energy            =      -0.0000000000000000 [Eh]
	 Same-Spin Energy          =      -0.3169370625480463 [Eh]
	 Opposite-Spin Energy      =      -1.1267895208784073 [Eh]
	 Correlation Energy        =      -1.4437265834264537 [Eh]
	 Total Energy              =    -314.9773951576109994 [Eh]
	 SCS Total Energy          =    -314.9914616867546897 [Eh]
  Charge       = 0
  Multiplicity = 1
  Basis Set: AUG-CC-PVTZ
  Basis Set:

    Orbital Energies (a.u.)
    -----------------------

    Doubly Occupied:

       1A    -11.213464     2A    -11.212963     3A    -11.210585
       4A    -11.210249     5A    -11.209865     6A    -11.209298
       7A    -11.207310     8A    -11.206133     9A     -1.093291
      10A     -1.058838    11A     -1.004634    12A     -0.950475
      13A     -0.888323    14A     -0.827241    15A     -0.778431
      16A     -0.767651    17A     -0.643181    18A     -0.625166
      19A     -0.615553    20A     -0.595170    21A     -0.577188
      22A     -0.559696    23A     -0.542981    24A     -0.530693
      25A     -0.512234    26A     -0.503108    27A     -0.494680
      28A     -0.475813    29A     -0.465203    30A     -0.460418
      31A     -0.442010    32A     -0.440485    33A     -0.429091

  @DF-RHF Final Energy:  -313.53366853281869

   => Energetics <=

    Nuclear Repulsion Energy =            401.4244418401594316
    One-Electron Energy =               -1217.9933784259569620
    Two-Electron Energy =                 503.0352680529787222
    DFT Exchange-Correlation Energy =       0.0000000000000000
    Empirical Dispersion Energy =           0.0000000000000000
    PCM Polarization Energy =               0.0000000000000000
    EFP Energy =                            0.0000000000000000
    Total Energy =                       -313.5336685328187514
  Basis Set:
    Molecular point group: c1
  Basis Set: AUG-CC-PVTZ
  Basis Set:
  Basis Set:
	 Reference Energy          =    -313.5336685328186945 [Eh]
	 Singles Energy            =      -0.0000000000000006 [Eh]
	 Same-Spin Energy          =      -0.3169370754059783 [Eh]
	 Opposite-Spin Energy      =      -1.1267895511046200 [Eh]
	 Correlation Energy        =      -1.4437266265105990 [Eh]
	 Total Energy              =    -314.9773951593293191 [Eh]

	 ================> DF-SCS-MP2 Energies <==================
	-----------------------------------------------------------
	 SCS Same-Spin Scale       =       0.3333333333333333 [-]
	 SCS Opposite-Spin Scale   =       1.2000000000000000 [-]
	 SCS Same-Spin Energy      =      -0.1056456918019927 [Eh]
	 SCS Opposite-Spin Energy  =      -1.3521474613255440 [Eh]
	 SCS Correlation Energy    =      -1.4577931531275374 [Eh]
	 SCS Total Energy          =    -314.9914616859462058 [Eh]
	-----------------------------------------------------------

  -Total Gradient:
     Atom            X                  Y                   Z
    ------   -----------------  -----------------  -----------------
       1        0.000000030392    -0.000000032091    -0.000000077378
       2       -0.000000018114    -0.000000015019     0.000000042107
       3       -0.000000018217    -0.000000030454    -0.000000035340
       4       -0.000000041254     0.000000057277     0.000000035401
       5        0.000000110364     0.000000022826    -0.000000086723
       6        0.000000007715    -0.000000020417    -0.000000022137
       7       -0.000000005683    -0.000000001578    -0.000000006023
       8       -0.000000029764     0.000000003256     0.000000031883
       9        0.000000032726     0.000000008859    -0.000000074301
      10        0.000000027594     0.000000017766     0.000000000581
      11       -0.000000027867    -0.000000063750     0.000000086541
      12       -0.000000108695     0.000000072391     0.000000178457
      13        0.000000142007    -0.000000074255    -0.000000052262
      14       -0.000000070183     0.000000011536    -0.000000026899
      15        0.000000073803     0.000000085133     0.000000094259
      16        0.000000043625     0.000000063949    -0.000000027619
      17       -0.000000000262    -0.000000039624    -0.000000013228
      18        0.000000042142     0.000000146385    -0.000000086233
      19       -0.000000020291     0.000000080432     0.000000069164
      20       -0.000000065782    -0.000000167149     0.000000092808
      21       -0.000000098768    -0.000000151554     0.000000065946
      22        0.000000008849     0.000000114018    -0.000000016594
      23        0.000000087171    -0.000000072363    -0.000000174248
      24       -0.000000018250    -0.000000077723     0.000000015393
      25       -0.000000054837     0.000000052548     0.000000077832
      26       -0.000000028422     0.000000009600    -0.000000091389

  **** Optimization is complete! (in 20 steps) ****
    Final optimized geometry and variables:
    Molecular point group: c1

    Geometry (in Angstrom), charge = 0, multiplicity = 1:

    C            2.341579933336    -1.121860871893    -0.958612004279
    H            2.519829127648    -0.415028794218    -1.770501676110
    H            1.301660319711    -1.443214778737    -1.017361987444
    H            2.966787531376    -1.997628603752    -1.132365383001
    C           -2.720853817922    -0.894205506545     0.986730552153
    H           -3.030630741005    -1.932512981020     1.107665145189
    H           -3.558551648747    -0.259638956051     1.279090828160
    H           -1.905529708933    -0.702503980891     1.682589074875
    C            2.652915720677    -0.488780006359     0.392793079673
    H            3.721810768499    -0.269876301251     0.449738114524
    H            2.442916582477    -1.211697322397     1.186016233411
    C           -2.314233578120    -0.598890977978    -0.454563931952
    H           -1.528359436100    -1.292021562751    -0.769440261887
    H           -3.170739353996    -0.799857223321    -1.100771976961
    C            1.868731116548     0.791529028698     0.679171901919
    H            2.141484635811     1.555255481876    -0.056165471516
    H            2.187116703963     1.174568110330     1.650961786679
    C            0.343963216818     0.603503260575     0.672753762199
    H           -0.108487322972     1.196748058489     1.472235430620
    H            0.116287087435    -0.441711670927     0.901093881111
    C           -0.313079541195     1.005317498425    -0.645316382414
    H           -0.061474797654     2.050756949697    -0.847696536054
    H            0.118670605956     0.423304763846    -1.463504225046
    C           -1.832093158311     0.843355112103    -0.674270218246
    H           -2.282082017972     1.492515486775     0.083794442979
    H           -2.191357943987     1.205973839650    -1.639740884556

*** Psi4 exiting successfully. Buy a developer a beer!
