                              Psi4 1.0.0 Driver

  ==> Input File <==

--------------------------------------------------------------------------
memory 60 Gb

molecule molecule_43_psi {
0 1
C           -2.881731876606     0.641293575574     0.886628464646
H           -3.942525408702     0.850594393276     1.022869022113
H           -2.324237121913     1.530356972448     1.186885335998
H           -2.615451383989    -0.165277920646     1.568584198578
C            2.288359513470     1.470894422567    -0.467603852775
H            2.274164337141     2.549707363210    -0.312600365130
H            1.629512801980     1.248415653951    -1.306295539981
H            3.301466223721     1.187681013882    -0.758197597058
C           -2.571899518311     0.279184836857    -0.562390246601
H           -2.941846060885     1.072723399112    -1.215482987687
H           -3.114173853427    -0.629322103079    -0.839425782297
C            1.867466235146     0.725293808937     0.793704641381
H            2.521470259543     1.021380168843     1.617292719738
H            0.858475324221     1.023710402940     1.088218545409
C           -1.081642842471     0.073810892378    -0.824300634756
H           -0.543152047971     0.979057149407    -0.533952156620
H           -0.917758533454    -0.052083655035    -1.898635596579
C           -0.501587628048    -1.144189969341    -0.107825679389
H           -1.085833937760    -2.015892908229    -0.416714802637
H           -0.642815775843    -1.049738054542     0.972637074373
C            0.985500951919    -1.397569484658    -0.393115480608
H            1.168606790966    -2.474112814815    -0.415732649884
H            1.232344659985    -1.030277136766    -1.393096038578
C            1.934363237807    -0.793098253411     0.643952081431
H            1.717837924092    -1.254759097644     1.611760793599
H            2.961596590100    -1.073052863732     0.390410588606
}

set globals {
  reference rhf
  g_convergence gau_verytight
  basis aug-cc-pvtz
  freeze_core true
  scf_type df
  mp_type df
}
optimize('mp2')
--------------------------------------------------------------------------

    Molecular point group: c1
  Charge       = 0
  Multiplicity = 1
  Basis Set: AUG-CC-PVTZ
  Basis Set:
  @DF-RHF Final Energy:  -313.53661539651466
    Total Energy =                       -313.5366153965146054
  Basis Set:
    Molecular point group: c1
  Basis Set: AUG-CC-PVTZ
  Basis Set:
  Basis Set:
	 Reference Energy          =    -313.5366153965146623 [Eh]
	 Singles Energy            =      -0.0000000000000004 [Eh]
	 Same-Spin Energy          =      -0.3172690657420698 [Eh]
	 Opposite-Spin Energy      =      -1.1268380274697722 [Eh]
	 Correlation Energy        =      -1.4441070932118425 [Eh]
	 Total Energy              =    -314.9807224897265314 [Eh]
	 SCS Total Energy          =    -314.9945773847257442 [Eh]
  Basis Set: AUG-CC-PVTZ
  Basis Set:
  @DF-RHF Final Energy:  -313.53661559754642
    Total Energy =                       -313.5366155975464153
  Basis Set:
  Basis Set: AUG-CC-PVTZ
  Basis Set:
  @DF-RHF Final Energy:  -313.53661557422583
    Total Energy =                       -313.5366155742262890
  @DF-RHF Final Energy:  -313.53661578879883
    Total Energy =                       -313.5366157887986560
  @DF-RHF Final Energy:  -313.53661540581021
    Total Energy =                       -313.5366154058104939
  @DF-RHF Final Energy:  -313.53661547706804
    Total Energy =                       -313.5366154770679259
  @DF-RHF Final Energy:  -313.53661528800501
    Total Energy =                       -313.5366152880046116
  @DF-RHF Final Energy:  -313.53661544603671
    Total Energy =                       -313.5366154460365351
  @DF-RHF Final Energy:  -313.53661553886008
    Total Energy =                       -313.5366155388599054
  @DF-RHF Final Energy:  -313.53661553530060
    Total Energy =                       -313.5366155353004842
  @DF-RHF Final Energy:  -313.53661548061427
    Total Energy =                       -313.5366154806142731
  @DF-RHF Final Energy:  -313.53661730353770
    Total Energy =                       -313.5366173035380370
  @DF-RHF Final Energy:  -313.53661562725085
    Total Energy =                       -313.5366156272507396
  @DF-RHF Final Energy:  -313.53661554897650
    Total Energy =                       -313.5366155489761582
  @DF-RHF Final Energy:  -313.53661549049298
    Total Energy =                       -313.5366154904928635
  @DF-RHF Final Energy:  -313.53661554957864
    Total Energy =                       -313.5366155495785279
  @DF-RHF Final Energy:  -313.53661562519585
    Total Energy =                       -313.5366156251957932
  @DF-RHF Final Energy:  -313.53661566976416
    Total Energy =                       -313.5366156697645010
  @DF-RHF Final Energy:  -313.53661552989433
    Total Energy =                       -313.5366155298942203
  @DF-RHF Final Energy:  -313.53661554583988
    Total Energy =                       -313.5366155458399362
  @DF-RHF Final Energy:  -313.53661546430152
    Total Energy =                       -313.5366154643013488
  @DF-RHF Final Energy:  -313.53661550553090
    Total Energy =                       -313.5366155055307900
  @DF-RHF Final Energy:  -313.53661601722871
    Total Energy =                       -313.5366160172286527
  @DF-RHF Final Energy:  -313.53661560176550
    Total Energy =                       -313.5366156017656181
  @DF-RHF Final Energy:  -313.53661552699094
    Total Energy =                       -313.5366155269911133
  @DF-RHF Final Energy:  -313.53661548638388
    Total Energy =                       -313.5366154863839370
  @DF-RHF Final Energy:  -313.53661554671328
    Total Energy =                       -313.5366155467135059
  @DF-RHF Final Energy:  -313.53661552946494
    Total Energy =                       -313.5366155294646546
  @DF-RHF Final Energy:  -313.53661548565015
    Total Energy =                       -313.5366154856501453
	 Singles Energy            =      -0.0000000000000001 [Eh]
	 Same-Spin Energy          =      -0.3172690482647683 [Eh]
	 Opposite-Spin Energy      =      -1.1268379607570016 [Eh]
	 Correlation Energy        =      -1.4441070090217698 [Eh]
	 Total Energy              =    -314.9807224946719089 [Eh]
	 SCS Total Energy          =    -314.9945773879801436 [Eh]
  Charge       = 0
  Multiplicity = 1
  Basis Set: AUG-CC-PVTZ
  Basis Set:

    Orbital Energies (a.u.)
    -----------------------

    Doubly Occupied:

       1A    -11.212739     2A    -11.212219     3A    -11.210895
       4A    -11.210291     5A    -11.209793     6A    -11.209431
       7A    -11.206968     8A    -11.206318     9A     -1.094039
      10A     -1.059226    11A     -1.006072    12A     -0.947847
      13A     -0.887458    14A     -0.836500    15A     -0.779092
      16A     -0.756932    17A     -0.649135    18A     -0.624355
      19A     -0.609367    20A     -0.605155    21A     -0.572894
      22A     -0.552834    23A     -0.548573    24A     -0.536633
      25A     -0.513271    26A     -0.503427    27A     -0.488003
      28A     -0.475967    29A     -0.465376    30A     -0.459688
      31A     -0.445280    32A     -0.439006    33A     -0.431270

  @DF-RHF Final Energy:  -313.53661545057724

   => Energetics <=

    Nuclear Repulsion Energy =            403.7702131922175681
    One-Electron Energy =               -1222.6815454396403311
    Two-Electron Energy =                 505.3747167968452914
    DFT Exchange-Correlation Energy =       0.0000000000000000
    Empirical Dispersion Energy =           0.0000000000000000
    PCM Polarization Energy =               0.0000000000000000
    EFP Energy =                            0.0000000000000000
    Total Energy =                       -313.5366154505774148
  Basis Set:
    Molecular point group: c1
  Basis Set: AUG-CC-PVTZ
  Basis Set:
  Basis Set:
	 Reference Energy          =    -313.5366154505772442 [Eh]
	 Singles Energy            =      -0.0000000000000004 [Eh]
	 Same-Spin Energy          =      -0.3172690612192366 [Eh]
	 Opposite-Spin Energy      =      -1.1268379782798208 [Eh]
	 Correlation Energy        =      -1.4441070394990578 [Eh]
	 Total Energy              =    -314.9807224900762890 [Eh]

	 ================> DF-SCS-MP2 Energies <==================
	-----------------------------------------------------------
	 SCS Same-Spin Scale       =       0.3333333333333333 [-]
	 SCS Opposite-Spin Scale   =       1.2000000000000000 [-]
	 SCS Same-Spin Energy      =      -0.1057563537397455 [Eh]
	 SCS Opposite-Spin Energy  =      -1.3522055739357850 [Eh]
	 SCS Correlation Energy    =      -1.4579619276755309 [Eh]
	 SCS Total Energy          =    -314.9945773782527567 [Eh]
	-----------------------------------------------------------

  -Total Gradient:
     Atom            X                  Y                   Z
    ------   -----------------  -----------------  -----------------
       1       -0.000000066655     0.000000065538     0.000000213502
       2        0.000000124887    -0.000000011715     0.000000020682
       3       -0.000000095907    -0.000000151194    -0.000000070519
       4       -0.000000050737     0.000000161531    -0.000000164493
       5        0.000000242460     0.000000395711    -0.000000207447
       6        0.000000025614    -0.000000021460    -0.000000015637
       7        0.000000035090     0.000000010647     0.000000133159
       8       -0.000000038058     0.000000017039    -0.000000009172
       9       -0.000000243156    -0.000000052505    -0.000000371839
      10        0.000000127524    -0.000000198713     0.000000126586
      11        0.000000195782     0.000000240461     0.000000069321
      12       -0.000000531644    -0.000000302937     0.000000372446
      13       -0.000000124306     0.000000062990    -0.000000086733
      14        0.000000421929    -0.000000337253    -0.000000146248
      15        0.000000145774     0.000000616799    -0.000000489824
      16       -0.000000199060    -0.000000626106     0.000000077249
      17        0.000000043948     0.000000084581     0.000000433791
      18       -0.000000126802    -0.000000443493     0.000000687975
      19        0.000000278289     0.000000453520     0.000000239648
      20        0.000000040943    -0.000000034721    -0.000000675352
      21        0.000000285590    -0.000000165974    -0.000000568450
      22       -0.000000111991     0.000000312676    -0.000000166477
      23       -0.000000197517    -0.000000210204     0.000000760170
      24        0.000000122449    -0.000000349630     0.000000342615
      25        0.000000156304     0.000000336989    -0.000000648653
      26       -0.000000460748     0.000000147423     0.000000143697

  **** Optimization is complete! (in 30 steps) ****
    Final optimized geometry and variables:
    Molecular point group: c1

    Geometry (in Angstrom), charge = 0, multiplicity = 1:

    C           -2.881724685989     0.641291253844     0.886639517081
    H           -3.942517929164     0.850585856202     1.022890268479
    H           -2.324232293377     1.530357239432     1.186892125935
    H           -2.615433078920    -0.165279541933     1.568591464468
    C            2.288357343900     1.470910695089    -0.467563915858
    H            2.274156109029     2.549719437399    -0.312533246831
    H            1.629515937601     1.248450011654    -1.306264364229
    H            3.301466626893     1.187709406698    -0.758159717220
    C           -2.571902992041     0.279186362475    -0.562382489774
    H           -2.941856113592     1.072725195671    -1.215470482966
    H           -3.114176690455    -0.629321066307    -0.839416081146
    C            1.867460865919     0.725275200537     0.793723355203
    H            2.521457816267     1.021344136369     1.617322939725
    H            0.858466853168     1.023677992456     1.088238364853
    C           -1.081647918006     0.073816725360    -0.824304409101
    H           -0.543155878973     0.979059864985    -0.533950025672
    H           -0.917769818928    -0.052066191637    -1.898641147608
    C           -0.501584928265    -1.144190508768    -0.107846771272
    H           -1.085830061134    -2.015891632571    -0.416742205961
    H           -0.642806806024    -1.049751422609     0.972617594910
    C            0.985503386084    -1.397559050906    -0.393150010786
    H            1.168612848860    -2.474100962495    -0.415798068485
    H            1.232341592707    -1.030237518730    -1.393120616539
    C            1.934366612746    -0.793112215847     0.643930779353
    H            1.717845816891    -1.254800184409     1.611727083296
    H            2.961600483439    -1.073054379541     0.390379437032

*** Psi4 exiting successfully. Buy a developer a beer!
