                              Psi4 1.0.0 Driver

  ==> Input File <==

--------------------------------------------------------------------------
memory 60 Gb

molecule molecule_93_psi {
0 1
C           -2.531584004088    -1.212371588395     0.285795720576
H           -3.462016726984    -0.847451157394     0.722955493934
H           -1.804661710411    -1.299074898582     1.092241462033
H           -2.717242382600    -2.211454775226    -0.109503227339
C            3.138107311308     0.135768428397    -0.296623876896
H            3.870769500811     0.090784959978    -1.102036866195
H            3.636054251764    -0.163952373605     0.627326441943
H            2.831792985621     1.175919572062    -0.186358016920
C           -2.057077892103    -0.255728611224    -0.805051410542
H           -2.851452321709    -0.168506413536    -1.548984073332
H           -1.196316609482    -0.674844687160    -1.332005371656
C            1.946268526392    -0.769704019301    -0.585843184614
H            1.435655863354    -0.424189837050    -1.487669366168
H            2.303301802391    -1.777342908455    -0.810419925208
C           -1.704179935087     1.141094956304    -0.272435175454
H           -2.284627102729     1.329088780303     0.636770051073
H           -2.024706816911     1.894098229766    -0.996224977622
C           -0.224080006153     1.395303351848     0.021537731896
H           -0.133193478191     2.431351307179     0.358333650740
H            0.337674651060     1.337715947857    -0.914789407476
C            0.432829762447     0.493037939309     1.072858826471
H            1.274155901604     1.033858166958     1.512477172649
H           -0.271323599154     0.327252256832     1.893769341311
C            0.955575140973    -0.859282359117     0.575304832016
H            1.452119589246    -1.356476829194     1.414513726707
H            0.129596674010    -1.507845861752     0.282667108725
}

set globals {
  reference rhf
  g_convergence gau_verytight
  basis aug-cc-pvtz
  freeze_core true
  scf_type df
  mp_type df
}
optimize('mp2')
--------------------------------------------------------------------------

    Molecular point group: c1
  Charge       = 0
  Multiplicity = 1
  Basis Set: AUG-CC-PVTZ
  Basis Set:
  @DF-RHF Final Energy:  -313.53039995347592
    Total Energy =                       -313.5303999534753530
  Basis Set:
    Molecular point group: c1
  Basis Set: AUG-CC-PVTZ
  Basis Set:
  Basis Set:
	 Reference Energy          =    -313.5303999534759214 [Eh]
	 Singles Energy            =      -0.0000000000000000 [Eh]
	 Same-Spin Energy          =      -0.3181269713750426 [Eh]
	 Opposite-Spin Energy      =      -1.1282300369548417 [Eh]
	 Correlation Energy        =      -1.4463570083298842 [Eh]
	 Total Energy              =    -314.9767569618057905 [Eh]
	 SCS Total Energy          =    -314.9903183216134153 [Eh]
  Basis Set: AUG-CC-PVTZ
  Basis Set:
  @DF-RHF Final Energy:  -313.53039958068791
    Total Energy =                       -313.5303995806880266
  Basis Set:
  Basis Set: AUG-CC-PVTZ
  Basis Set:
  @DF-RHF Final Energy:  -313.53039958697076
    Total Energy =                       -313.5303995869711002
  @DF-RHF Final Energy:  -313.53039943989711
    Total Energy =                       -313.5303994398973373
  @DF-RHF Final Energy:  -313.53039962758857
    Total Energy =                       -313.5303996275887357
  @DF-RHF Final Energy:  -313.53039971656210
    Total Energy =                       -313.5303997165626129
  @DF-RHF Final Energy:  -313.53039968808690
    Total Energy =                       -313.5303996880866180
  @DF-RHF Final Energy:  -313.53039918066304
    Total Energy =                       -313.5303991806630961
  @DF-RHF Final Energy:  -313.53039959608424
    Total Energy =                       -313.5303995960841803
  @DF-RHF Final Energy:  -313.53039952351122
    Total Energy =                       -313.5303995235109369
  @DF-RHF Final Energy:  -313.53039967732923
    Total Energy =                       -313.5303996773293420
  @DF-RHF Final Energy:  -313.53039895112380
    Total Energy =                       -313.5303989511235727
  @DF-RHF Final Energy:  -313.53039966817812
    Total Energy =                       -313.5303996681784042
  @DF-RHF Final Energy:  -313.53039976791939
    Total Energy =                       -313.5303997679193913
  @DF-RHF Final Energy:  -313.53039963868468
    Total Energy =                       -313.5303996386847416
  @DF-RHF Final Energy:  -313.53039976693509
    Total Energy =                       -313.5303997669349201
  @DF-RHF Final Energy:  -313.53039802623493
    Total Energy =                       -313.5303980262347068
  @DF-RHF Final Energy:  -313.53039969506528
    Total Energy =                       -313.5303996950652845
  @DF-RHF Final Energy:  -313.53039461607386
    Total Energy =                       -313.5303946160735791
  @DF-RHF Final Energy:  -313.53039965937870
    Total Energy =                       -313.5303996593784746
  @DF-RHF Final Energy:  -313.53039892589589
    Total Energy =                       -313.5303989258959518
	 Singles Energy            =      -0.0000000000000002 [Eh]
	 Same-Spin Energy          =      -0.3181272425481487 [Eh]
	 Opposite-Spin Energy      =      -1.1282307880875242 [Eh]
	 Correlation Energy        =      -1.4463580306356731 [Eh]
	 Total Energy              =    -314.9767569565315739 [Eh]
	 SCS Total Energy          =    -314.9903182857836441 [Eh]
  Charge       = 0
  Multiplicity = 1
  Basis Set: AUG-CC-PVTZ
  Basis Set:

    Orbital Energies (a.u.)
    -----------------------

    Doubly Occupied:

       1A    -11.212687     2A    -11.212513     3A    -11.210927
       4A    -11.210564     5A    -11.210041     6A    -11.209369
       7A    -11.206873     8A    -11.206750     9A     -1.093693
      10A     -1.056259    11A     -1.004080    12A     -0.952168
      13A     -0.889319    14A     -0.834615    15A     -0.787195
      16A     -0.746308    17A     -0.648996    18A     -0.634130
      19A     -0.601317    20A     -0.596650    21A     -0.577503
      22A     -0.560697    23A     -0.547640    24A     -0.533077
      25A     -0.516260    26A     -0.501369    27A     -0.495794
      28A     -0.471311    29A     -0.463014    30A     -0.461687
      31A     -0.443430    32A     -0.433546    33A     -0.431839

  @DF-RHF Final Energy:  -313.53039972079847

   => Energetics <=

    Nuclear Repulsion Energy =            409.0149433964333525
    One-Electron Energy =               -1233.1674457094725312
    Two-Electron Energy =                 510.6221025922407648
    DFT Exchange-Correlation Energy =       0.0000000000000000
    Empirical Dispersion Energy =           0.0000000000000000
    PCM Polarization Energy =               0.0000000000000000
    EFP Energy =                            0.0000000000000000
    Total Energy =                       -313.5303997207983571
  Basis Set:
    Molecular point group: c1
  Basis Set: AUG-CC-PVTZ
  Basis Set:
  Basis Set:
	 Reference Energy          =    -313.5303997207984708 [Eh]
	 Singles Energy            =      -0.0000000000000002 [Eh]
	 Same-Spin Energy          =      -0.3181270291443644 [Eh]
	 Opposite-Spin Energy      =      -1.1282302147211285 [Eh]
	 Correlation Energy        =      -1.4463572438654930 [Eh]
	 Total Energy              =    -314.9767569646639913 [Eh]

	 ================> DF-SCS-MP2 Energies <==================
	-----------------------------------------------------------
	 SCS Same-Spin Scale       =       0.3333333333333333 [-]
	 SCS Opposite-Spin Scale   =       1.2000000000000000 [-]
	 SCS Same-Spin Energy      =      -0.1060423430481214 [Eh]
	 SCS Opposite-Spin Energy  =      -1.3538762576653542 [Eh]
	 SCS Correlation Energy    =      -1.4599186007134759 [Eh]
	 SCS Total Energy          =    -314.9903183215119498 [Eh]
	-----------------------------------------------------------

  -Total Gradient:
     Atom            X                  Y                   Z
    ------   -----------------  -----------------  -----------------
       1        0.000000206378     0.000000110379    -0.000000049640
       2       -0.000000047363     0.000000018073     0.000000012107
       3        0.000000085491    -0.000000046868     0.000000145124
       4       -0.000000026875    -0.000000099351    -0.000000030358
       5        0.000000046696    -0.000000028519     0.000000091533
       6       -0.000000101573     0.000000062144     0.000000099956
       7       -0.000000141849     0.000000075047    -0.000000154941
       8        0.000000105202    -0.000000086440    -0.000000017492
       9       -0.000000279825     0.000000114748     0.000000074455
      10       -0.000000037247    -0.000000012946    -0.000000004897
      11        0.000000165240    -0.000000122178    -0.000000134902
      12       -0.000000213176     0.000000244397    -0.000000020778
      13        0.000000068953    -0.000000087676     0.000000003143
      14       -0.000000081308     0.000000189217     0.000000053545
      15       -0.000000200865    -0.000000161904    -0.000000040291
      16       -0.000000037304     0.000000044211     0.000000071119
      17        0.000000049242     0.000000108968    -0.000000123267
      18       -0.000000430664    -0.000000311666     0.000000273601
      19        0.000000007363     0.000000335941     0.000000156633
      20        0.000000258881     0.000000056229    -0.000000539604
      21        0.000000222503    -0.000000417243    -0.000000163040
      22        0.000000355595     0.000000037900     0.000000099671
      23       -0.000000261848     0.000000016869     0.000000265378
      24        0.000000309717     0.000000265589    -0.000000045501
      25        0.000000105923    -0.000000065355     0.000000017056
      26       -0.000000127286    -0.000000239565    -0.000000038610

  **** Optimization is complete! (in 22 steps) ****
    Final optimized geometry and variables:
    Molecular point group: c1

    Geometry (in Angstrom), charge = 0, multiplicity = 1:

    C           -2.531568209596    -1.212382041488     0.285783586709
    H           -3.462018243404    -0.847481795469     0.722925755641
    H           -1.804659639270    -1.299069926839     1.092244993497
    H           -2.717198222587    -2.211469963383    -0.109519617763
    C            3.138098176233     0.135760740885    -0.296636818088
    H            3.870748728909     0.090782103109    -1.102061058334
    H            3.636057148817    -0.163972706260     0.627303408151
    H            2.831791506440     1.175912833104    -0.186354792416
    C           -2.057064385028    -0.255729135062    -0.805055427309
    H           -2.851440010198    -0.168508574276    -1.548988405340
    H           -1.196298245436    -0.674836889860    -1.332012189831
    C            1.946250108803    -0.769702218924    -0.585847771413
    H            1.435629676470    -0.424180158481    -1.487667122610
    H            2.303274802453    -1.777342701979    -0.810432959284
    C           -1.704177345299     1.141095376933    -0.272433358979
    H           -2.284636178594     1.329086314472     0.636765982833
    H           -2.024699552503     1.894097444848    -0.996227541269
    C           -0.224081625430     1.395312154912     0.021553737575
    H           -0.133205807539     2.431357881326     0.358361289802
    H            0.337680963453     1.337739377236    -0.914770646146
    C            0.432830350942     0.493042831235     1.072869535222
    H            1.274160884301     1.033860971830     1.512483871956
    H           -0.271319841105     0.327259045703     1.893784363797
    C            0.955571210170    -0.859278735487     0.575311848321
    H            1.452130164453    -1.356467271235     1.414516745845
    H            0.129589753725    -1.507846925521     0.282688889732

*** Psi4 exiting successfully. Buy a developer a beer!
