                              Psi4 1.0.0 Driver

  ==> Input File <==

--------------------------------------------------------------------------
memory 30 Gb

molecule molecule_79_psi {
0 1
symmetry c1
    C            2.134838494151     1.623987565098    -0.214607204767
    H            1.763871533404     1.952683630957     0.755015616366
    H            1.281291921109     1.516809294680    -0.880223486585
    H            2.767815175715     2.412680114890    -0.615918440582
    C           -2.924845339006     1.287764297311     0.254121419875
    H           -3.894831738523     1.641049036179     0.596912096764
    H           -2.684198444188     1.812960131943    -0.669464475991
    H           -2.187942875535     1.571887941039     1.000915194270
    C            2.904447704342     0.321227336220    -0.087166659129
    H            3.799003773056     0.489835301963     0.513153605442
    H            3.248108683792     0.009838889566    -1.075246252227
    C           -2.934493037624    -0.213901120070     0.026920398585
    H           -3.122588791617    -0.725380184411     0.972624359259
    H           -3.760211878291    -0.472871093953    -0.636161587677
    C            2.103181847880    -0.817692134105     0.526228850491
    H            1.836422409392    -0.557416823360     1.553426471771
    H            2.747147858315    -1.694933979027     0.587606079575
    C            0.830728771034    -1.162082040722    -0.247542864978
    H            0.678022026100    -2.242151114177    -0.252949587120
    H            0.952911133262    -0.867944234660    -1.293580534007
    C           -0.422506176632    -0.507723917301     0.310604884588
    H           -0.616275585810    -0.911630237486     1.307948789363
    H           -0.249910916520     0.559223609336     0.438665788596
    C           -1.637334956507    -0.735813509350    -0.568667646872
    H           -1.468614649820    -0.256972112342    -1.536947762960
    H           -1.733194461847    -1.805894602276    -0.764480146877
}

set globals {
  reference rhf
  g_convergence gau_verytight
  basis aug-cc-pvtz
  freeze_core true
  scf_type df
  mp_type df
}
optimize('mp2')
--------------------------------------------------------------------------

    Molecular point group: c1
  Charge       = 0
  Multiplicity = 1
  Basis Set: AUG-CC-PVTZ
  Basis Set:
  @DF-RHF Final Energy:  -313.53857998452901
    Total Energy =                       -313.5385799845290080
  Basis Set:
    Molecular point group: c1
  Basis Set: AUG-CC-PVTZ
  Basis Set:
  Basis Set:
	 Reference Energy          =    -313.5385799845290080 [Eh]
	 Singles Energy            =      -0.0000000000000001 [Eh]
	 Same-Spin Energy          =      -0.3167176452794636 [Eh]
	 Opposite-Spin Energy      =      -1.1252517466007146 [Eh]
	 Correlation Energy        =      -1.4419693918801781 [Eh]
	 Total Energy              =    -314.9805493764091580 [Eh]
	 SCS Total Energy          =    -314.9944546288763263 [Eh]
  Basis Set: AUG-CC-PVTZ
  Basis Set:
  @DF-RHF Final Energy:  -313.53898169928078
    Total Energy =                       -313.5389816992806686
  Basis Set:
  Basis Set: AUG-CC-PVTZ
  Basis Set:
  @DF-RHF Final Energy:  -313.53897380199311
    Total Energy =                       -313.5389738019932793
  @DF-RHF Final Energy:  -313.53899634631421
    Total Energy =                       -313.5389963463142067
  @DF-RHF Final Energy:  -313.53900752382708
    Total Energy =                       -313.5390075238267968
  @DF-RHF Final Energy:  -313.53903447829367
    Total Energy =                       -313.5390344782935585
  @DF-RHF Final Energy:  -313.53903032837712
    Total Energy =                       -313.5390303283772369
  @DF-RHF Final Energy:  -313.53903126699561
    Total Energy =                       -313.5390312669955506
  @DF-RHF Final Energy:  -313.53903110774388
    Total Energy =                       -313.5390311077441083
  @DF-RHF Final Energy:  -313.53903107554186
    Total Energy =                       -313.5390310755420842
  @DF-RHF Final Energy:  -313.53903091330449
    Total Energy =                       -313.5390309133043729
  @DF-RHF Final Energy:  -313.53903091579053
    Total Energy =                       -313.5390309157904198
  @DF-RHF Final Energy:  -313.53903089929452
    Total Energy =                       -313.5390308992942892
	 Singles Energy            =      -0.0000000000000002 [Eh]
	 Same-Spin Energy          =      -0.3162583746599276 [Eh]
	 Opposite-Spin Energy      =      -1.1255414238551711 [Eh]
	 Correlation Energy        =      -1.4417997985150988 [Eh]
	 Total Energy              =    -314.9808306978096084 [Eh]
	 SCS Total Energy          =    -314.9951000661407079 [Eh]
  Charge       = 0
  Multiplicity = 1
  Basis Set: AUG-CC-PVTZ
  Basis Set:

    Orbital Energies (a.u.)
    -----------------------

    Doubly Occupied:

       1A    -11.213321     2A    -11.212649     3A    -11.210569
       4A    -11.209939     5A    -11.209857     6A    -11.207913
       7A    -11.207292     8A    -11.206471     9A     -1.093121
      10A     -1.060983    11A     -1.006682    12A     -0.946935
      13A     -0.889366    14A     -0.827284    15A     -0.772961
      16A     -0.771008    17A     -0.649791    18A     -0.624141
      19A     -0.605866    20A     -0.601054    21A     -0.581210
      22A     -0.558682    23A     -0.539677    24A     -0.524958
      25A     -0.522871    26A     -0.498937    27A     -0.485038
      28A     -0.481132    29A     -0.461635    30A     -0.459757
      31A     -0.452789    32A     -0.440905    33A     -0.428014

  @DF-RHF Final Energy:  -313.53903098962360

   => Energetics <=

    Nuclear Repulsion Energy =            395.2591035940273514
    One-Electron Energy =               -1205.6706538342623389
    Two-Electron Energy =                 496.8725192506116741
    DFT Exchange-Correlation Energy =       0.0000000000000000
    Empirical Dispersion Energy =           0.0000000000000000
    PCM Polarization Energy =               0.0000000000000000
    EFP Energy =                            0.0000000000000000
    Total Energy =                       -313.5390309896233134
  Basis Set:
    Molecular point group: c1
  Basis Set: AUG-CC-PVTZ
  Basis Set:
  Basis Set:
	 Reference Energy          =    -313.5390309896235976 [Eh]
	 Singles Energy            =      -0.0000000000000001 [Eh]
	 Same-Spin Energy          =      -0.3162583753351959 [Eh]
	 Opposite-Spin Energy      =      -1.1255413326591948 [Eh]
	 Correlation Energy        =      -1.4417997079943907 [Eh]
	 Total Energy              =    -314.9808306976179892 [Eh]

	 ================> DF-SCS-MP2 Energies <==================
	-----------------------------------------------------------
	 SCS Same-Spin Scale       =       0.3333333333333333 [-]
	 SCS Opposite-Spin Scale   =       1.2000000000000000 [-]
	 SCS Same-Spin Energy      =      -0.1054194584450653 [Eh]
	 SCS Opposite-Spin Energy  =      -1.3506495991910337 [Eh]
	 SCS Correlation Energy    =      -1.4560690576360991 [Eh]
	 SCS Total Energy          =    -314.9951000472597116 [Eh]
	-----------------------------------------------------------

  -Total Gradient:
     Atom            X                  Y                   Z
    ------   -----------------  -----------------  -----------------
       1       -0.000000100266    -0.000000055176    -0.000000101801
       2        0.000000031503    -0.000000013146    -0.000000079123
       3        0.000000145318    -0.000000009044     0.000000127315
       4        0.000000009723     0.000000006086     0.000000041262
       5       -0.000000081789    -0.000000100049     0.000000018479
       6       -0.000000104845     0.000000029054     0.000000031995
       7        0.000000032852     0.000000071741    -0.000000079282
       8       -0.000000002089     0.000000035198     0.000000005185
       9       -0.000000256171    -0.000000170749    -0.000000200306
      10       -0.000000037995     0.000000002774    -0.000000041559
      11       -0.000000040601     0.000000116460     0.000000209261
      12        0.000000395560     0.000000300781     0.000000067992
      13       -0.000000049089    -0.000000092628     0.000000191139
      14       -0.000000259459    -0.000000081721    -0.000000212371
      15       -0.000000112733    -0.000000072799     0.000000169107
      16        0.000000035855    -0.000000058764    -0.000000289907
      17        0.000000028109     0.000000090211     0.000000099133
      18       -0.000000137756    -0.000000165156    -0.000000308911
      19        0.000000160006     0.000000293242    -0.000000019564
      20       -0.000000112317    -0.000000079124     0.000000405928
      21        0.000000376916     0.000000416827     0.000000367912
      22        0.000000087904     0.000000149415    -0.000000410738
      23        0.000000006495    -0.000000463062    -0.000000048752
      24       -0.000000245141    -0.000000112894     0.000000103056
      25        0.000000158163     0.000000076560    -0.000000024785
      26        0.000000071852    -0.000000114036    -0.000000020663

  **** Optimization is complete! (in 14 steps) ****
    Final optimized geometry and variables:
    Molecular point group: c1

    Geometry (in Angstrom), charge = 0, multiplicity = 1:

    C            2.172624299282     1.632166962967    -0.082341615442
    H            1.793189849060     1.911016666269     0.902011651030
    H            1.324879135427     1.579352786579    -0.765524154532
    H            2.824967317710     2.433448471876    -0.429432872235
    C           -2.944214710519     1.322763800209     0.148939141152
    H           -3.910305641804     1.687696503601     0.496878236846
    H           -2.729081809607     1.803765498053    -0.806899418089
    H           -2.190934657987     1.651060751417     0.864113184512
    C            2.923606321653     0.306726279599    -0.022001195212
    H            3.819366750148     0.429335977238     0.591395737835
    H            3.270038743389     0.044226613161    -1.025473932702
    C           -2.949887613369    -0.194679579839    -0.003556762736
    H           -3.129667317781    -0.661019944016     0.969061396174
    H           -3.783155852797    -0.487335478939    -0.646238800590
    C            2.102268093518    -0.858506284228     0.529491477232
    H            1.829920560817    -0.650817179039     1.569314227353
    H            2.742124149584    -1.743192132607     0.551364838392
    C            0.829608273975    -1.161291771322    -0.273422958327
    H            0.662437933273    -2.240739726932    -0.311549953117
    H            0.971242337007    -0.840543111258    -1.311329284316
    C           -0.429783394787    -0.507970239685     0.289979766479
    H           -0.620127996923    -0.913234842134     1.289633152930
    H           -0.263199181005     0.562190156002     0.418216306365
    C           -1.651602811797    -0.745227678760    -0.589160224211
    H           -1.479429312419    -0.291672337228    -1.571148070252
    H           -1.758783970570    -1.820511555195    -0.759716878377

*** Psi4 exiting successfully. Buy a developer a beer!
