                              Psi4 1.0.0 Driver

  ==> Input File <==

--------------------------------------------------------------------------
memory 60 Gb

molecule molecule_71_psi {
0 1
C           -2.716537117653    -1.443749210374     0.024181104889
H           -2.088566888954    -2.091924003319     0.637640114564
H           -3.124200757493    -2.044032325860    -0.788854992086
H           -3.548641889827    -1.106961307516     0.644267566317
C            2.590691666883    -1.281712867151     0.676992227992
H            2.516741403011    -0.614343064890     1.535490549700
H            3.556328955267    -1.104458746780     0.201111666926
H            2.584803317878    -2.304372522700     1.053688108347
C           -1.915823860063    -0.257279950714    -0.496797864800
H           -2.543949783380     0.358805000615    -1.145882062345
H           -1.093224524046    -0.614672997565    -1.117159012285
C            1.453865622868    -1.051657923404    -0.313562468004
H            1.556375660348    -1.758696281675    -1.140460805459
H            0.501485081105    -1.277312767244     0.168112617865
C           -1.387339965223     0.618384381418     0.636441710967
H           -0.855766144261    -0.000103997515     1.366919949469
H           -2.252118526017     1.028253526391     1.165966679557
C           -0.480904973278     1.767550231476     0.179283923907
H           -0.610895380493     2.613247808611     0.858900874022
H           -0.815828649432     2.114070885415    -0.804063732326
C            1.017766354345     1.460768591411     0.117280459305
H            1.530127643901     2.390695181391    -0.141034741566
H            1.364590421531     1.197827217481     1.120820712728
C            1.444000530903     0.372409594581    -0.876448498114
H            0.798794827461     0.424972111247    -1.757573337697
H            2.455858905713     0.589662056122    -1.231240860273
}

set globals {
  reference rhf
  g_convergence gau_verytight
  basis aug-cc-pvtz
  freeze_core true
  scf_type df
  mp_type df
}
optimize('mp2')
--------------------------------------------------------------------------

    Molecular point group: c1
  Charge       = 0
  Multiplicity = 1
  Basis Set: AUG-CC-PVTZ
  Basis Set:
  @DF-RHF Final Energy:  -313.53310816128044
    Total Energy =                       -313.5331081612804383
  Basis Set:
    Molecular point group: c1
  Basis Set: AUG-CC-PVTZ
  Basis Set:
  Basis Set:
	 Reference Energy          =    -313.5331081612804383 [Eh]
	 Singles Energy            =      -0.0000000000000004 [Eh]
	 Same-Spin Energy          =      -0.3175316714753789 [Eh]
	 Opposite-Spin Energy      =      -1.1273842737179769 [Eh]
	 Correlation Energy        =      -1.4449159451933562 [Eh]
	 Total Energy              =    -314.9780241064738107 [Eh]
	 SCS Total Energy          =    -314.9918131802338053 [Eh]
  Basis Set: AUG-CC-PVTZ
  Basis Set:
  @DF-RHF Final Energy:  -313.53310829024144
    Total Energy =                       -313.5331082902415574
  Basis Set:
  Basis Set: AUG-CC-PVTZ
  Basis Set:
  @DF-RHF Final Energy:  -313.53310813348185
    Total Energy =                       -313.5331081334818464
  @DF-RHF Final Energy:  -313.53310816682495
    Total Energy =                       -313.5331081668249453
  @DF-RHF Final Energy:  -313.53310812627956
    Total Energy =                       -313.5331081262792168
  @DF-RHF Final Energy:  -313.53310818638579
    Total Energy =                       -313.5331081863859026
  @DF-RHF Final Energy:  -313.53310820669583
    Total Energy =                       -313.5331082066959993
  @DF-RHF Final Energy:  -313.53310811164090
    Total Energy =                       -313.5331081116408996
  @DF-RHF Final Energy:  -313.53310824602738
    Total Energy =                       -313.5331082460272114
  @DF-RHF Final Energy:  -313.53310817729971
    Total Energy =                       -313.5331081772995958
	 Singles Energy            =      -0.0000000000000001 [Eh]
	 Same-Spin Energy          =      -0.3175316750058221 [Eh]
	 Opposite-Spin Energy      =      -1.1273842565834977 [Eh]
	 Correlation Energy        =      -1.4449159315893199 [Eh]
	 Total Energy              =    -314.9780241088890307 [Eh]
	 SCS Total Energy          =    -314.9918131768685043 [Eh]
  Charge       = 0
  Multiplicity = 1
  Basis Set: AUG-CC-PVTZ
  Basis Set:

    Orbital Energies (a.u.)
    -----------------------

    Doubly Occupied:

       1A    -11.212385     2A    -11.211420     3A    -11.211246
       4A    -11.210987     5A    -11.210458     6A    -11.210237
       7A    -11.207247     8A    -11.206921     9A     -1.093486
      10A     -1.056574    11A     -1.010708    12A     -0.946787
      13A     -0.889222    14A     -0.825262    15A     -0.788536
      16A     -0.761022    17A     -0.649359    18A     -0.622472
      19A     -0.612015    20A     -0.585079    21A     -0.581201
      22A     -0.568339    23A     -0.537161    24A     -0.535397
      25A     -0.522320    26A     -0.498900    27A     -0.489872
      28A     -0.470094    29A     -0.468994    30A     -0.459783
      31A     -0.449877    32A     -0.433864    33A     -0.431476

  @DF-RHF Final Energy:  -313.53310817138180

   => Energetics <=

    Nuclear Repulsion Energy =            406.1310542445178839
    One-Electron Energy =               -1227.3909276390156720
    Two-Electron Energy =                 507.7267652231159900
    DFT Exchange-Correlation Energy =       0.0000000000000000
    Empirical Dispersion Energy =           0.0000000000000000
    PCM Polarization Energy =               0.0000000000000000
    EFP Energy =                            0.0000000000000000
    Total Energy =                       -313.5331081713818548
  Basis Set:
    Molecular point group: c1
  Basis Set: AUG-CC-PVTZ
  Basis Set:
  Basis Set:
	 Reference Energy          =    -313.5331081713817980 [Eh]
	 Singles Energy            =      -0.0000000000000000 [Eh]
	 Same-Spin Energy          =      -0.3175316674232532 [Eh]
	 Opposite-Spin Energy      =      -1.1273842669664385 [Eh]
	 Correlation Energy        =      -1.4449159343896918 [Eh]
	 Total Energy              =    -314.9780241057715102 [Eh]

	 ================> DF-SCS-MP2 Energies <==================
	-----------------------------------------------------------
	 SCS Same-Spin Scale       =       0.3333333333333333 [-]
	 SCS Opposite-Spin Scale   =       1.2000000000000000 [-]
	 SCS Same-Spin Energy      =      -0.1058438891410844 [Eh]
	 SCS Opposite-Spin Energy  =      -1.3528611203597261 [Eh]
	 SCS Correlation Energy    =      -1.4587050095008105 [Eh]
	 SCS Total Energy          =    -314.9918131808826161 [Eh]
	-----------------------------------------------------------

  -Total Gradient:
     Atom            X                  Y                   Z
    ------   -----------------  -----------------  -----------------
       1       -0.000000193099    -0.000000511986     0.000000355962
       2       -0.000000399920     0.000000536518    -0.000000499369
       3        0.000000261595     0.000000367489     0.000000527012
       4        0.000000630865    -0.000000170852    -0.000000490586
       5        0.000000495363    -0.000000169233     0.000000343283
       6       -0.000000020778    -0.000000291500    -0.000000374662
       7       -0.000000368993    -0.000000090450     0.000000143941
       8        0.000000030410     0.000000375007    -0.000000147524
       9        0.000000198473     0.000000089498    -0.000001341110
      10        0.000000654887    -0.000000508136     0.000000413372
      11       -0.000001195761     0.000000596157     0.000000961814
      12       -0.000000422152    -0.000000444394    -0.000000098275
      13       -0.000000055586     0.000000247082     0.000000384872
      14        0.000000609068     0.000000187316    -0.000000264775
      15        0.000000308866    -0.000000479269     0.000001430289
      16       -0.000000856924     0.000000886045    -0.000001006925
      17        0.000000846800    -0.000000352939    -0.000000333137
      18       -0.000000233588     0.000001197108    -0.000000669930
      19       -0.000000031953    -0.000000614003    -0.000000617926
      20        0.000000422052    -0.000000616048     0.000001193254
      21        0.000000431630    -0.000000255140     0.000000707905
      22       -0.000000100102    -0.000000589910     0.000000266358
      23       -0.000000518981     0.000000200141    -0.000001006628
      24       -0.000000462452     0.000000511783    -0.000000749738
      25        0.000000438906    -0.000000128366     0.000000826002
      26       -0.000000468627     0.000000028082     0.000000046521

  **** Optimization is complete! (in 11 steps) ****
    Final optimized geometry and variables:
    Molecular point group: c1

    Geometry (in Angstrom), charge = 0, multiplicity = 1:

    C           -2.716534672077    -1.443748549779     0.024175872758
    H           -2.088562477415    -2.091922792690     0.637633174103
    H           -3.124197110079    -2.044031036698    -0.788861134884
    H           -3.548640022725    -1.106963885895     0.644263260486
    C            2.590701586500    -1.281712678655     0.676988314583
    H            2.516758241308    -0.614343133565     1.535487024925
    H            3.556332633479    -1.104455040060     0.201097274555
    H            2.584820753667    -2.304371866115     1.053684195296
    C           -1.915824424811    -0.257276566186    -0.496801173959
    H           -2.543949988782     0.358806811414    -1.145887047519
    H           -1.093222758774    -0.614667917446    -1.117159794274
    C            1.453864085203    -1.051660682503    -0.313553823875
    H            1.556363693761    -1.758702232532    -1.140450107740
    H            0.501488772515    -1.277311770643     0.168132347401
    C           -1.387344490904     0.618388406997     0.636439812117
    H           -0.855775799586    -0.000099805222     1.366921817105
    H           -2.252125060150     1.028259648220     1.165959858981
    C           -0.480905497403     1.767552681469     0.179284855409
    H           -0.610893426974     2.613249266980     0.858903826922
    H           -0.815827131139     2.114076674015    -0.804062711566
    C            1.017764954088     1.460765660750     0.117282653572
    H            1.530129042243     2.390690871973    -0.141033306524
    H            1.364587853849     1.197823618696     1.120823686040
    C            1.443995748744     0.372404447832    -0.876445313442
    H            0.798785582330     0.424963109842    -1.757567179369
    H            2.455852417758     0.589656767894    -1.231243044718

*** Psi4 exiting successfully. Buy a developer a beer!
