                              Psi4 1.0.0 Driver

  ==> Input File <==

--------------------------------------------------------------------------
memory 110 Gb

molecule molecule_02_psi {
0 1
symmetry c1
    C           -3.823675474007     0.256839413874    -1.130281750459
    H           -4.862724294731    -0.063565958783    -1.058005142194
    H           -3.414974886784    -0.137667809023    -2.061385244381
    H           -3.812275733918     1.345395156905    -1.198103877246
    C            3.823676920801    -0.256840789911    -1.130277428038
    H            4.862727225491     0.063559384652    -1.057996839729
    H            3.414980631034     0.137672170713    -2.061380481777
    H            3.812272307191    -1.345396383072    -1.198104132708
    C           -3.003613347160    -0.217877330746     0.062865171529
    H           -3.043614491511    -1.308518807213     0.128148197780
    H           -3.442180619774     0.163854546315     0.988647667248
    C            3.003613979847     0.217875015826     0.062869384197
    H            3.442177384982    -0.163862103283     0.988651672448
    H            3.043619772431     1.308516059330     0.128156723154
    C           -1.547341444654     0.222882148511    -0.018980743802
    H           -1.503051638308     1.316297016625    -0.069944419765
    H           -1.117747804037    -0.149346921758    -0.952757149562
    C           -0.718536708699    -0.257806887068     1.166627142978
    H           -0.708975620581    -1.352575564052     1.177972273388
    H           -1.213349366899     0.056846950989     2.090079440890
    C            0.718535741658     0.257806079675     1.166628510195
    H            0.708975122198     1.352574500728     1.177979255231
    H            1.213348135617    -0.056852810840     2.090079170762
    C            1.547340219132    -0.222877482684    -0.018981682721
    H            1.503046031646    -1.316291861002    -0.069953544236
    H            1.117749192391     0.149360438644    -0.952755744797
}

set globals {
  reference rhf
  g_convergence gau_verytight
  basis aug-cc-pvtz
  freeze_core true
  scf_type df
  mp_type df
}
optimize('mp2')
--------------------------------------------------------------------------

    Molecular point group: c1
  Charge       = 0
  Multiplicity = 1
  Basis Set: AUG-CC-PVTZ
  Basis Set:
  @DF-RHF Final Energy:  -313.54596450424179
    Total Energy =                       -313.5459645042418515
  Basis Set:
    Molecular point group: c1
  Basis Set: AUG-CC-PVTZ
  Basis Set:
  Basis Set:
	 Reference Energy          =    -313.5459645042417947 [Eh]
	 Singles Energy            =      -0.0000000000000003 [Eh]
	 Same-Spin Energy          =      -0.3150180972843636 [Eh]
	 Opposite-Spin Energy      =      -1.1235612136249149 [Eh]
	 Correlation Energy        =      -1.4385793109092788 [Eh]
	 Total Energy              =    -314.9845438151510848 [Eh]
	 SCS Total Energy          =    -314.9992439930198316 [Eh]
  Basis Set: AUG-CC-PVTZ
  Basis Set:
  @DF-RHF Final Energy:  -313.54596443765064
    Total Energy =                       -313.5459644376508095
  Basis Set:
  Basis Set: AUG-CC-PVTZ
  Basis Set:
  @DF-RHF Final Energy:  -313.54596436848726
    Total Energy =                       -313.5459643684872049
  @DF-RHF Final Energy:  -313.54596444600867
    Total Energy =                       -313.5459644460086679
	 Singles Energy            =      -0.0000000000000001 [Eh]
	 Same-Spin Energy          =      -0.3150181130224969 [Eh]
	 Opposite-Spin Energy      =      -1.1235612506257024 [Eh]
	 Correlation Energy        =      -1.4385793636481994 [Eh]
	 Total Energy              =    -314.9845438096568842 [Eh]
	 SCS Total Energy          =    -314.9992439844336900 [Eh]
  Charge       = 0
  Multiplicity = 1
  Basis Set: AUG-CC-PVTZ
  Basis Set:

    Orbital Energies (a.u.)
    -----------------------

    Doubly Occupied:

       1A    -11.212307     2A    -11.212306     3A    -11.210705
       4A    -11.210157     5A    -11.209373     6A    -11.209310
       7A    -11.207007     8A    -11.207007     9A     -1.093628
      10A     -1.061280    11A     -1.012808    12A     -0.946894
      13A     -0.882197    14A     -0.811389    15A     -0.795860
      16A     -0.770028    17A     -0.648308    18A     -0.637151
      19A     -0.597123    20A     -0.592202    21A     -0.569794
      22A     -0.564088    23A     -0.552502    24A     -0.522804
      25A     -0.522397    26A     -0.499060    27A     -0.483386
      28A     -0.471667    29A     -0.468361    30A     -0.460146
      31A     -0.454872    32A     -0.441428    33A     -0.433860

  @DF-RHF Final Energy:  -313.54596448622033

   => Energetics <=

    Nuclear Repulsion Energy =            383.0640625445189471
    One-Electron Energy =               -1181.2772438140975737
    Two-Electron Energy =                 484.6672167833582989
    DFT Exchange-Correlation Energy =       0.0000000000000000
    Empirical Dispersion Energy =           0.0000000000000000
    PCM Polarization Energy =               0.0000000000000000
    EFP Energy =                            0.0000000000000000
    Total Energy =                       -313.5459644862203277
  Basis Set:
    Molecular point group: c1
  Basis Set: AUG-CC-PVTZ
  Basis Set:
  Basis Set:
	 Reference Energy          =    -313.5459644862203277 [Eh]
	 Singles Energy            =      -0.0000000000000008 [Eh]
	 Same-Spin Energy          =      -0.3150181065896591 [Eh]
	 Opposite-Spin Energy      =      -1.1235612178284551 [Eh]
	 Correlation Energy        =      -1.4385793244181149 [Eh]
	 Total Energy              =    -314.9845438106384563 [Eh]

	 ================> DF-SCS-MP2 Energies <==================
	-----------------------------------------------------------
	 SCS Same-Spin Scale       =       0.3333333333333333 [-]
	 SCS Opposite-Spin Scale   =       1.2000000000000000 [-]
	 SCS Same-Spin Energy      =      -0.1050060355298864 [Eh]
	 SCS Opposite-Spin Energy  =      -1.3482734613941461 [Eh]
	 SCS Correlation Energy    =      -1.4532794969240330 [Eh]
	 SCS Total Energy          =    -314.9992439831443676 [Eh]
	-----------------------------------------------------------

  -Total Gradient:
     Atom            X                  Y                   Z
    ------   -----------------  -----------------  -----------------
       1        0.000000233554    -0.000000132938     0.000000338215
       2       -0.000000320839    -0.000000114565     0.000000046193
       3        0.000000130787    -0.000000125393    -0.000000387177
       4       -0.000000039685     0.000000434416    -0.000000086106
       5       -0.000000128342     0.000000061480     0.000000248528
       6        0.000000123543     0.000000041984     0.000000006905
       7       -0.000000065542     0.000000064743    -0.000000206546
       8        0.000000022660    -0.000000184959    -0.000000038131
       9        0.000000287504     0.000000396901    -0.000000668700
      10       -0.000000134269    -0.000000695740     0.000000090290
      11       -0.000000455373     0.000000179735     0.000000617041
      12       -0.000000182855    -0.000000170357    -0.000000233888
      13        0.000000133655    -0.000000017441     0.000000159934
      14        0.000000053295     0.000000211132     0.000000041947
      15       -0.000000467939    -0.000000644096     0.000000880135
      16        0.000000061381     0.000000976258    -0.000000192897
      17        0.000000378938    -0.000000149603    -0.000000723441
      18        0.000000526873     0.000000341993    -0.000000600385
      19        0.000000024008    -0.000000754180     0.000000056690
      20       -0.000000280640     0.000000211814     0.000000560690
      21       -0.000000146708    -0.000000234964    -0.000000247335
      22        0.000000005456     0.000000414992     0.000000033783
      23        0.000000125384    -0.000000071516     0.000000258686
      24        0.000000231968     0.000000337733     0.000000457926
      25        0.000000055489    -0.000000463573    -0.000000051139
      26       -0.000000172300     0.000000086145    -0.000000361219

  **** Optimization is complete! (in 5 steps) ****
    Final optimized geometry and variables:
    Molecular point group: c1

    Geometry (in Angstrom), charge = 0, multiplicity = 1:

    C           -3.823673374369     0.256843488715    -1.130282884258
    H           -4.862723855855    -0.063557200642    -1.058005479069
    H           -3.414974884909    -0.137666921694    -2.061386310956
    H           -3.812269069852     1.345399415075    -1.198107089541
    C            3.823675000933    -0.256838184607    -1.130278687404
    H            4.862724385762     0.063565269196    -1.058000204289
    H            3.414976408371     0.137671165495    -2.061382291712
    H            3.812273666266    -1.345393939243    -1.198102943439
    C           -3.003613393828    -0.217875451176     0.062864756518
    H           -3.043619627413    -1.308517018970     0.128149281399
    H           -3.442179800455     0.163858565920     0.988647304128
    C            3.003612287155     0.217878179621     0.062868023607
    H            3.442178317941    -0.163854734741     0.988650788618
    H            3.043614915959     1.308519566776     0.128152701926
    C           -1.547339406513     0.222877390172    -0.018980813288
    H           -1.503044351756     1.316292179866    -0.069946897873
    H           -1.117746692096    -0.149354997056    -0.952756584249
    C           -0.718536307900    -0.257811071166     1.166627938901
    H           -0.708974620908    -1.352579382704     1.177973082426
    H           -1.213350184426     0.056841882033     2.090079607439
    C            0.718535170112     0.257804368458     1.166630056384
    H            0.708973206659     1.352572496994     1.177979193148
    H            1.213347708396    -0.056851772748     2.090081128386
    C            1.547339946343    -0.222879126605    -0.018979423110
    H            1.503048668967    -1.316293659176    -0.069947393620
    H            1.117746738871     0.149353926780    -0.952754396007

*** Psi4 exiting successfully. Buy a developer a beer!
