                              Psi4 1.0.0 Driver

  ==> Input File <==

--------------------------------------------------------------------------
memory 40 Gb

molecule molecule_2 {
0 1
C            2.167034256997    -1.148433470783     0.926838505106
H            1.493753179736    -0.678068811369     1.641337711449
H            3.169935775867    -0.764594409333     1.119323529599
H            2.175362050831    -2.219827555102     1.129445426653
C           -2.243742550572    -1.148592347738    -0.876283310392
H           -3.152568863068    -1.226332218677    -1.473655533497
H           -2.070375305501    -2.116488112020    -0.403535611808
H           -1.412862576859    -0.962194493237    -1.555893658645
C            1.764695763344    -0.858742174144    -0.517024569673
H            2.494926256559    -1.338005858899    -1.172587154166
H            0.803939214939    -1.325938717898    -0.744786061363
C           -2.365636881061    -0.054889101030     0.181364154125
H           -2.576779947110     0.902863361318    -0.302170045042
H           -3.234781346798    -0.276032105276     0.803458499785
C            1.704736254838     0.638515107105    -0.849794739078
H            2.450421776031     1.162281585137    -0.242371025917
H            2.007715547247     0.783528529674    -1.889662327873
C            0.350552083007     1.331386706840    -0.674107259860
H            0.485485270730     2.374657235767    -0.971065118177
H           -0.364951799848     0.912822065648    -1.386478519006
C           -0.255065800336     1.305902574829     0.734021620495
H            0.546229039858     1.412573199576     1.471292923746
H           -0.891282433199     2.187670455416     0.853298344147
C           -1.119277114431     0.087548278277     1.074071215374
H           -0.534196944005    -0.831754861989     1.017900783194
H           -1.429213943092     0.184720678546     2.117035249416
}

set globals {
  reference rhf
  g_convergence gau_verytight
  basis aug-cc-pvtz
  freeze_core true
  scf_type df
  mp_type df
}
optimize('mp2')
--------------------------------------------------------------------------

    Molecular point group: c1
  Charge       = 0
  Multiplicity = 1
  Basis Set: AUG-CC-PVTZ
  Basis Set:
  @DF-RHF Final Energy:  -313.52696699728313
    Total Energy =                       -313.5269669972830116
  Basis Set:
    Molecular point group: c1
  Basis Set: AUG-CC-PVTZ
  Basis Set:
  Basis Set:
	 Reference Energy          =    -313.5269669972831252 [Eh]
	 Singles Energy            =      -0.0000000000000001 [Eh]
	 Same-Spin Energy          =      -0.3179841225387399 [Eh]
	 Opposite-Spin Energy      =      -1.1284782007004326 [Eh]
	 Correlation Energy        =      -1.4464623232391725 [Eh]
	 Total Energy              =    -314.9734293205223139 [Eh]
	 SCS Total Energy          =    -314.9871355456365336 [Eh]
  Basis Set: AUG-CC-PVTZ
  Basis Set:
  @DF-RHF Final Energy:  -313.52696669830328
    Total Energy =                       -313.5269666983033403
  Basis Set:
  Basis Set: AUG-CC-PVTZ
  Basis Set:
  @DF-RHF Final Energy:  -313.52696705459607
    Total Energy =                       -313.5269670545960707
  @DF-RHF Final Energy:  -313.52696698803481
    Total Energy =                       -313.5269669880348147
  @DF-RHF Final Energy:  -313.52696701819912
    Total Energy =                       -313.5269670181994570
  @DF-RHF Final Energy:  -313.52696698301889
    Total Energy =                       -313.5269669830188377
  @DF-RHF Final Energy:  -313.52696701392603
    Total Energy =                       -313.5269670139259688
  @DF-RHF Final Energy:  -313.52696697541154
    Total Energy =                       -313.5269669754113693
  @DF-RHF Final Energy:  -313.52696683418031
    Total Energy =                       -313.5269668341804845
	 Singles Energy            =      -0.0000000000000002 [Eh]
	 Same-Spin Energy          =      -0.3179841834562070 [Eh]
	 Opposite-Spin Energy      =      -1.1284783010571524 [Eh]
	 Correlation Energy        =      -1.4464624845133598 [Eh]
	 Total Energy              =    -314.9734293186936611 [Eh]
	 SCS Total Energy          =    -314.9871355232676251 [Eh]
  Charge       = 0
  Multiplicity = 1
  Basis Set: AUG-CC-PVTZ
  Basis Set:

    Orbital Energies (a.u.)
    -----------------------

    Doubly Occupied:

       1A    -11.213060     2A    -11.212272     3A    -11.211382
       4A    -11.210989     5A    -11.210101     6A    -11.209483
       7A    -11.207888     8A    -11.206009     9A     -1.092425
      10A     -1.054659    11A     -1.005863    12A     -0.954807
      13A     -0.884914    14A     -0.829429    15A     -0.787926
      16A     -0.758041    17A     -0.639289    18A     -0.634086
      19A     -0.605776    20A     -0.587939    21A     -0.575492
      22A     -0.570913    23A     -0.547238    24A     -0.540116
      25A     -0.503774    26A     -0.500252    27A     -0.498626
      28A     -0.471331    29A     -0.467311    30A     -0.463068
      31A     -0.439698    32A     -0.434287    33A     -0.430136

  @DF-RHF Final Energy:  -313.52696698893055

   => Energetics <=

    Nuclear Repulsion Energy =            411.0554277727921999
    One-Electron Energy =               -1237.2476312927260551
    Two-Electron Energy =                 512.6652365310031882
    DFT Exchange-Correlation Energy =       0.0000000000000000
    Empirical Dispersion Energy =           0.0000000000000000
    PCM Polarization Energy =               0.0000000000000000
    EFP Energy =                            0.0000000000000000
    Total Energy =                       -313.5269669889306670
  Basis Set:
    Molecular point group: c1
  Basis Set: AUG-CC-PVTZ
  Basis Set:
  Basis Set:
	 Reference Energy          =    -313.5269669889305533 [Eh]
	 Singles Energy            =      -0.0000000000000003 [Eh]
	 Same-Spin Energy          =      -0.3179841281438407 [Eh]
	 Opposite-Spin Energy      =      -1.1284782055327383 [Eh]
	 Correlation Energy        =      -1.4464623336765792 [Eh]
	 Total Energy              =    -314.9734293226071600 [Eh]

	 ================> DF-SCS-MP2 Energies <==================
	-----------------------------------------------------------
	 SCS Same-Spin Scale       =       0.3333333333333333 [-]
	 SCS Opposite-Spin Scale   =       1.2000000000000000 [-]
	 SCS Same-Spin Energy      =      -0.1059947093812802 [Eh]
	 SCS Opposite-Spin Energy  =      -1.3541738466392859 [Eh]
	 SCS Correlation Energy    =      -1.4601685560205664 [Eh]
	 SCS Total Energy          =    -314.9871355449511157 [Eh]
	-----------------------------------------------------------

  -Total Gradient:
     Atom            X                  Y                   Z
    ------   -----------------  -----------------  -----------------
       1        0.000000032559    -0.000000164916    -0.000000083410
       2       -0.000000015933     0.000000048966     0.000000020508
       3        0.000000031782    -0.000000016836     0.000000026950
       4        0.000000017599    -0.000000066726     0.000000023613
       5       -0.000000081866     0.000000057373     0.000000081705
       6       -0.000000107937     0.000000002613    -0.000000045295
       7        0.000000013037    -0.000000120757     0.000000028893
       8        0.000000136402     0.000000016596    -0.000000110157
       9       -0.000000202516     0.000000251208     0.000000133166
      10        0.000000081395    -0.000000041910    -0.000000039407
      11       -0.000000032740    -0.000000036330    -0.000000031424
      12        0.000000142745    -0.000000106226     0.000000051473
      13       -0.000000031466     0.000000113404    -0.000000078373
      14       -0.000000082642    -0.000000029385     0.000000036040
      15        0.000000131219     0.000000158479    -0.000000095253
      16       -0.000000175740    -0.000000100235    -0.000000100076
      17        0.000000011339    -0.000000112993     0.000000146423
      18       -0.000000081080     0.000000214661    -0.000000117862
      19       -0.000000134251    -0.000000164413     0.000000011678
      20        0.000000239967     0.000000087029     0.000000184978
      21        0.000000226043     0.000000125280     0.000000053361
      22       -0.000000121110     0.000000004870    -0.000000103620
      23        0.000000085365    -0.000000058871    -0.000000008334
      24       -0.000000096516    -0.000000133164     0.000000060786
      25        0.000000010664     0.000000086675    -0.000000005138
      26        0.000000003681    -0.000000014392    -0.000000041227

  **** Optimization is complete! (in 10 steps) ****
    Final optimized geometry and variables:
    Molecular point group: c1

    Geometry (in Angstrom), charge = 0, multiplicity = 1:

    C            2.167027375716    -1.148441427680     0.926834071585
    H            1.493755042474    -0.678067224865     1.641335176276
    H            3.169934983826    -0.764617103731     1.119316487119
    H            2.175340239281    -2.219835855713     1.129439824669
    C           -2.243730487880    -1.148596067784    -0.876281034542
    H           -3.152557521598    -1.226345979997    -1.473650735010
    H           -2.070352015494    -2.116489615142    -0.403532909349
    H           -1.412854264052    -0.962189929908    -1.555893486715
    C            1.764688965069    -0.858742637434    -0.517027881518
    H            2.494916175846    -1.338007712302    -1.172593052211
    H            0.803929890475    -1.325933742588    -0.744789447264
    C           -2.365634354198    -0.054893542997     0.181366324422
    H           -2.576784779864     0.902857221446    -0.302168040970
    H           -3.234777246469    -0.276043735727     0.803460142034
    C            1.704736056686     0.638516097826    -0.849791878422
    H            2.450420125583     1.162277492082    -0.242362658719
    H            2.007720583813     0.783532710526    -1.889657198620
    C            0.350553178366     1.331390844777    -0.674107655238
    H            0.485488981568     2.374660889612    -0.971065744162
    H           -0.364949486694     0.912827826492    -1.386480922414
    C           -0.255068457126     1.305909375326     0.734019636038
    H            0.546224267096     1.412586949950     1.471292314190
    H           -0.891288804769     2.187675378291     0.853290739271
    C           -1.119276473838     0.087553704694     1.074073982983
    H           -0.534193278035    -0.831748170048     1.017910489015
    H           -1.429215452237     0.184731360505     2.117037040076

*** Psi4 exiting successfully. Buy a developer a beer!
