                              Psi4 1.0.0 Driver

  ==> Input File <==

--------------------------------------------------------------------------
memory 60 Gb

molecule molecule_81_psi {
0 1
C           -2.855868149552     1.304386614665     0.149236491088
H           -2.875508184672     1.499221045747    -0.924125389556
H           -1.914204282030     1.687998379900     0.542158809582
H           -3.661594597391     1.877043100015     0.608485632830
C            3.926799888161     0.140110293159     0.425993059553
H            4.644994786734    -0.653236951948     0.631668539959
H            3.835457801462     0.750851906921     1.325184397667
H            4.339033013991     0.770989040134    -0.362476992529
C           -3.014418983312    -0.184413054584     0.436163057729
H           -4.003362413261    -0.510668894365     0.105663420925
H           -2.980463625044    -0.347654589714     1.516956000754
C            2.570180069145    -0.420196684375     0.016170282850
H            2.680167690583    -1.040526687473    -0.878171049549
H            2.195169046609    -1.074799704124     0.805167423596
C           -1.955071149867    -1.068218668577    -0.222002915982
H           -2.037204752083    -0.984335193396    -1.310471309668
H           -2.181364272791    -2.108017635866     0.023004249066
C           -0.516764700889    -0.736261367001     0.201775798806
H            0.053183262033    -1.660162254537     0.312801614400
H           -0.529307823934    -0.265576261519     1.191640953227
C            0.213132855852     0.176822098081    -0.782138197842
H            0.366979926627    -0.369991693025    -1.718228040844
H           -0.422451593386     1.029693856941    -1.027481718813
C            1.557052519213     0.683711081470    -0.266501202987
H            1.986823678599     1.374093487434    -0.998421013922
H            1.396160249904     1.264099916790     0.648439681004
}

set globals {
  reference rhf
  g_convergence gau_verytight
  basis aug-cc-pvtz
  freeze_core true
  scf_type df
  mp_type df
}
optimize('mp2')
--------------------------------------------------------------------------

    Molecular point group: c1
  Charge       = 0
  Multiplicity = 1
  Basis Set: AUG-CC-PVTZ
  Basis Set:
  @DF-RHF Final Energy:  -313.53884478909276
    Total Energy =                       -313.5388447890927637
  Basis Set:
    Molecular point group: c1
  Basis Set: AUG-CC-PVTZ
  Basis Set:
  Basis Set:
	 Reference Energy          =    -313.5388447890927637 [Eh]
	 Singles Energy            =      -0.0000000000000000 [Eh]
	 Same-Spin Energy          =      -0.3162132730915830 [Eh]
	 Opposite-Spin Energy      =      -1.1255128470596905 [Eh]
	 Correlation Energy        =      -1.4417261201512734 [Eh]
	 Total Energy              =    -314.9805709092440225 [Eh]
	 SCS Total Energy          =    -314.9948646299282586 [Eh]
  Basis Set: AUG-CC-PVTZ
  Basis Set:
  @DF-RHF Final Energy:  -313.53884478821169
    Total Energy =                       -313.5388447882114065
  Basis Set:
  Basis Set: AUG-CC-PVTZ
  Basis Set:
  @DF-RHF Final Energy:  -313.53884479002409
    Total Energy =                       -313.5388447900241431
  @DF-RHF Final Energy:  -313.53884476005936
    Total Energy =                       -313.5388447600596464
  @DF-RHF Final Energy:  -313.53884472227838
    Total Energy =                       -313.5388447222784407
  @DF-RHF Final Energy:  -313.53884474902816
    Total Energy =                       -313.5388447490281010
  @DF-RHF Final Energy:  -313.53884474676374
    Total Energy =                       -313.5388447467638571
  @DF-RHF Final Energy:  -313.53884477478312
    Total Energy =                       -313.5388447747831719
  @DF-RHF Final Energy:  -313.53884475288254
    Total Energy =                       -313.5388447528827101
  @DF-RHF Final Energy:  -313.53884478154566
    Total Energy =                       -313.5388447815459472
  @DF-RHF Final Energy:  -313.53884478580642
    Total Energy =                       -313.5388447858064751
  @DF-RHF Final Energy:  -313.53884475257615
    Total Energy =                       -313.5388447525762103
  @DF-RHF Final Energy:  -313.53884477116173
    Total Energy =                       -313.5388447711615072
  @DF-RHF Final Energy:  -313.53884475711675
    Total Energy =                       -313.5388447571166353
  @DF-RHF Final Energy:  -313.53884382062637
    Total Energy =                       -313.5388438206266528
  @DF-RHF Final Energy:  -313.53884477062923
    Total Energy =                       -313.5388447706290549
	 Singles Energy            =      -0.0000000000000004 [Eh]
	 Same-Spin Energy          =      -0.3162133243245790 [Eh]
	 Opposite-Spin Energy      =      -1.1255128187643089 [Eh]
	 Correlation Energy        =      -1.4417261430888884 [Eh]
	 Total Energy              =    -314.9805709137181111 [Eh]
	 SCS Total Energy          =    -314.9948645945879093 [Eh]
  Charge       = 0
  Multiplicity = 1
  Basis Set: AUG-CC-PVTZ
  Basis Set:

    Orbital Energies (a.u.)
    -----------------------

    Doubly Occupied:

       1A    -11.213275     2A    -11.211731     3A    -11.210480
       4A    -11.210147     5A    -11.209613     6A    -11.208896
       7A    -11.207112     8A    -11.206766     9A     -1.093403
      10A     -1.060395    11A     -1.006657    12A     -0.949455
      13A     -0.883501    14A     -0.829217    15A     -0.781729
      16A     -0.765470    17A     -0.641930    18A     -0.632050
      19A     -0.610673    20A     -0.591480    21A     -0.572276
      22A     -0.558725    23A     -0.557311    24A     -0.527516
      25A     -0.511343    26A     -0.502579    27A     -0.487996
      28A     -0.477668    29A     -0.463224    30A     -0.460910
      31A     -0.451592    32A     -0.435149    33A     -0.431743

  @DF-RHF Final Energy:  -313.53884477078969

   => Energetics <=

    Nuclear Repulsion Energy =            392.5013214148783049
    One-Electron Energy =               -1200.1563060195708204
    Two-Electron Energy =                 494.1161398339027073
    DFT Exchange-Correlation Energy =       0.0000000000000000
    Empirical Dispersion Energy =           0.0000000000000000
    PCM Polarization Energy =               0.0000000000000000
    EFP Energy =                            0.0000000000000000
    Total Energy =                       -313.5388447707898649
  Basis Set:
    Molecular point group: c1
  Basis Set: AUG-CC-PVTZ
  Basis Set:
  Basis Set:
	 Reference Energy          =    -313.5388447707896944 [Eh]
	 Singles Energy            =      -0.0000000000000002 [Eh]
	 Same-Spin Energy          =      -0.3162133019475178 [Eh]
	 Opposite-Spin Energy      =      -1.1255128390947395 [Eh]
	 Correlation Energy        =      -1.4417261410422575 [Eh]
	 Total Energy              =    -314.9805709118319328 [Eh]

	 ================> DF-SCS-MP2 Energies <==================
	-----------------------------------------------------------
	 SCS Same-Spin Scale       =       0.3333333333333333 [-]
	 SCS Opposite-Spin Scale   =       1.2000000000000000 [-]
	 SCS Same-Spin Energy      =      -0.1054044339825059 [Eh]
	 SCS Opposite-Spin Energy  =      -1.3506154069136873 [Eh]
	 SCS Correlation Energy    =      -1.4560198408961935 [Eh]
	 SCS Total Energy          =    -314.9948646116858981 [Eh]
	-----------------------------------------------------------

  -Total Gradient:
     Atom            X                  Y                   Z
    ------   -----------------  -----------------  -----------------
       1       -0.000000050536    -0.000000105382     0.000000059772
       2        0.000000001614     0.000000058612    -0.000000272390
       3        0.000000238322     0.000000133850     0.000000062366
       4       -0.000000181716     0.000000018157     0.000000108201
       5       -0.000000153163     0.000000017341     0.000000013777
       6        0.000000089065    -0.000000082929     0.000000023648
       7        0.000000010640     0.000000076049     0.000000097348
       8        0.000000068217     0.000000097896    -0.000000080130
       9        0.000000319072     0.000000374042    -0.000000246423
      10       -0.000000363000    -0.000000196546    -0.000000178516
      11       -0.000000023146    -0.000000165006     0.000000490497
      12       -0.000000018702     0.000000130892    -0.000000037961
      13        0.000000071069    -0.000000153158    -0.000000193607
      14       -0.000000070478    -0.000000130497     0.000000140720
      15        0.000000253284     0.000000511669     0.000000371052
      16       -0.000000088738     0.000000011694    -0.000000647968
      17       -0.000000157661    -0.000000476583     0.000000165672
      18       -0.000000026329     0.000000204967    -0.000000394736
      19        0.000000304344    -0.000000309465     0.000000025303
      20       -0.000000050248     0.000000171759     0.000000446957
      21        0.000000014289    -0.000000346357     0.000000361096
      22        0.000000042855    -0.000000131891    -0.000000274904
      23       -0.000000091344     0.000000371314    -0.000000072942
      24       -0.000000200255    -0.000000363887    -0.000000022711
      25        0.000000083064     0.000000137884    -0.000000085347
      26       -0.000000020522     0.000000145574     0.000000141224

  **** Optimization is complete! (in 17 steps) ****
    Final optimized geometry and variables:
    Molecular point group: c1

    Geometry (in Angstrom), charge = 0, multiplicity = 1:

    C           -2.855854987638     1.304390022942     0.149246319894
    H           -2.875495493318     1.499229913610    -0.924114534796
    H           -1.914188978233     1.687995330995     0.542169506385
    H           -3.661578396070     1.877047689391     0.608499224351
    C            3.926792554913     0.140116589379     0.425999826858
    H            4.644986501766    -0.653228315140     0.631685924963
    H            3.835445016248     0.750865475674     1.325185276356
    H            4.339029347635     0.770988675438    -0.362473099907
    C           -3.014412962474    -0.184410387554     0.436165450525
    H           -4.003359013432    -0.510658893005     0.105665625689
    H           -2.980457595264    -0.347657586276     1.516957583280
    C            2.570174876277    -0.420194178141     0.016174485554
    H            2.680166398652    -1.040529254519    -0.878162377384
    H            2.195160791682    -1.074791792049     0.805174209261
    C           -1.955071725911    -1.068219999746    -0.222006080926
    H           -2.037208910512    -0.984333845774    -1.310473952976
    H           -2.181370548840    -2.108018127934     0.022999756848
    C           -0.516762892025    -0.736270237659     0.201768086374
    H            0.053183077456    -1.660172788065     0.312786516061
    H           -0.529299980614    -0.265589925081     1.191634996348
    C            0.213130331634     0.176816669445    -0.782145422527
    H            0.366979116270    -0.369995405903    -1.718235394780
    H           -0.422456961447     1.029685981109    -1.027487045452
    C            1.557047414010     0.683710981189    -0.266507652133
    H            1.986819669156     1.374089524183    -0.998429663598
    H            1.396150774631     1.264104367583     0.648428846002

*** Psi4 exiting successfully. Buy a developer a beer!
