                              Psi4 1.0.0 Driver

  ==> Input File <==

--------------------------------------------------------------------------
memory 60 Gb

molecule molecule_07_psi {
0 1
C           -3.809009840145     0.911351052830    -0.179372442054
H           -4.123372024822     1.891265885137     0.178972179429
H           -4.514290564224     0.171705824148     0.201574966646
H           -3.885098525000     0.912088759731    -1.267513625521
C            3.113331346392     1.451414884157     0.209768701000
H            4.000036720283     1.989047980618    -0.125253821237
H            3.105031683379     1.466410486853     1.301016254948
H            2.241924666286     2.004909024232    -0.137873580955
C           -2.388056133889     0.579966880979     0.260559759366
H           -2.324923622070     0.596781955590     1.352520905414
H           -1.707367789375     1.352296348487    -0.102576142236
C            3.110733497680     0.016620659381    -0.307186976293
H            3.080881432287     0.020129492391    -1.400314292180
H            4.048283331281    -0.467393979741    -0.024746647108
C           -1.937449043325    -0.787340394443    -0.241737569066
H           -1.939960460880    -0.785963678968    -1.336780222940
H           -2.675781220056    -1.533034058134     0.067677522268
C           -0.558205542368    -1.208801731613     0.258836973088
H           -0.355749060334    -2.234047154642    -0.064206223034
H           -0.561292887385    -1.224314819156     1.353699006259
C            0.575413702093    -0.310833360039    -0.224575184265
H            0.550370016093    -0.256845832470    -1.318872763604
H            0.420240276839     0.704973159993     0.142826839975
C            1.943646377109    -0.814196653141     0.221372784592
H            1.980169299235    -0.830686649833     1.315738716280
H            2.060742606809    -1.850575659295    -0.108099086337
}

set globals {
  reference rhf
  g_convergence gau_verytight
  basis aug-cc-pvtz
  freeze_core true
  scf_type df
  mp_type df
}
optimize('mp2')
--------------------------------------------------------------------------

    Molecular point group: c1
  Charge       = 0
  Multiplicity = 1
  Basis Set: AUG-CC-PVTZ
  Basis Set:
  @DF-RHF Final Energy:  -313.54398560310494
    Total Energy =                       -313.5439856031048294
  Basis Set:
    Molecular point group: c1
  Basis Set: AUG-CC-PVTZ
  Basis Set:
  Basis Set:
	 Reference Energy          =    -313.5439856031049430 [Eh]
	 Singles Energy            =      -0.0000000000000000 [Eh]
	 Same-Spin Energy          =      -0.3155055042845538 [Eh]
	 Opposite-Spin Energy      =      -1.1242615679266013 [Eh]
	 Correlation Energy        =      -1.4397670722111551 [Eh]
	 Total Energy              =    -314.9837526753161114 [Eh]
	 SCS Total Energy          =    -314.9982679860450503 [Eh]
  Basis Set: AUG-CC-PVTZ
  Basis Set:
  @DF-RHF Final Energy:  -313.54398570414725
    Total Energy =                       -313.5439857041473601
  Basis Set:
  Basis Set: AUG-CC-PVTZ
  Basis Set:
  @DF-RHF Final Energy:  -313.54398569892078
    Total Energy =                       -313.5439856989207783
  @DF-RHF Final Energy:  -313.54398552690100
    Total Energy =                       -313.5439855269011105
  @DF-RHF Final Energy:  -313.54398562448421
    Total Energy =                       -313.5439856244842645
  @DF-RHF Final Energy:  -313.54398585009972
    Total Energy =                       -313.5439858500998866
  @DF-RHF Final Energy:  -313.54398570648084
    Total Energy =                       -313.5439857064809530
  @DF-RHF Final Energy:  -313.54398587676258
    Total Energy =                       -313.5439858767621786
  @DF-RHF Final Energy:  -313.54398563763419
    Total Energy =                       -313.5439856376339094
  @DF-RHF Final Energy:  -313.54398578272992
    Total Energy =                       -313.5439857827299761
  @DF-RHF Final Energy:  -313.54398567523293
    Total Energy =                       -313.5439856752326477
  @DF-RHF Final Energy:  -313.54398581441279
    Total Energy =                       -313.5439858144125651
  @DF-RHF Final Energy:  -313.54398568430753
    Total Energy =                       -313.5439856843074722
  @DF-RHF Final Energy:  -313.54398562896301
    Total Energy =                       -313.5439856289628437
	 Singles Energy            =      -0.0000000000000000 [Eh]
	 Same-Spin Energy          =      -0.3155054899494948 [Eh]
	 Opposite-Spin Energy      =      -1.1242615565261118 [Eh]
	 Correlation Energy        =      -1.4397670464756067 [Eh]
	 Total Energy              =    -314.9837526754386090 [Eh]
	 SCS Total Energy          =    -314.9982679934441876 [Eh]
  Charge       = 0
  Multiplicity = 1
  Basis Set: AUG-CC-PVTZ
  Basis Set:

    Orbital Energies (a.u.)
    -----------------------

    Doubly Occupied:

       1A    -11.212804     2A    -11.212023     3A    -11.210585
       4A    -11.210228     5A    -11.209976     6A    -11.208670
       7A    -11.206971     8A    -11.206693     9A     -1.093780
      10A     -1.061528    11A     -1.009680    12A     -0.947460
      13A     -0.881114    14A     -0.830070    15A     -0.781074
      16A     -0.767302    17A     -0.643286    18A     -0.632905
      19A     -0.606263    20A     -0.593641    21A     -0.579918
      22A     -0.561831    23A     -0.549356    24A     -0.521897
      25A     -0.515912    26A     -0.500620    27A     -0.488168
      28A     -0.475645    29A     -0.464031    30A     -0.458982
      31A     -0.454009    32A     -0.440336    33A     -0.432748

  @DF-RHF Final Energy:  -313.54398562402275

   => Energetics <=

    Nuclear Repulsion Energy =            387.3822213672310681
    One-Electron Energy =               -1189.9133984149084426
    Two-Electron Energy =                 488.9871914236542239
    DFT Exchange-Correlation Energy =       0.0000000000000000
    Empirical Dispersion Energy =           0.0000000000000000
    PCM Polarization Energy =               0.0000000000000000
    EFP Energy =                            0.0000000000000000
    Total Energy =                       -313.5439856240231506
  Basis Set:
    Molecular point group: c1
  Basis Set: AUG-CC-PVTZ
  Basis Set:
  Basis Set:
	 Reference Energy          =    -313.5439856240227527 [Eh]
	 Singles Energy            =      -0.0000000000000000 [Eh]
	 Same-Spin Energy          =      -0.3155054900623670 [Eh]
	 Opposite-Spin Energy      =      -1.1242615610422915 [Eh]
	 Correlation Energy        =      -1.4397670511046585 [Eh]
	 Total Energy              =    -314.9837526751273913 [Eh]

	 ================> DF-SCS-MP2 Energies <==================
	-----------------------------------------------------------
	 SCS Same-Spin Scale       =       0.3333333333333333 [-]
	 SCS Opposite-Spin Scale   =       1.2000000000000000 [-]
	 SCS Same-Spin Energy      =      -0.1051684966874557 [Eh]
	 SCS Opposite-Spin Energy  =      -1.3491138732507497 [Eh]
	 SCS Correlation Energy    =      -1.4542823699382055 [Eh]
	 SCS Total Energy          =    -314.9982679939609511 [Eh]
	-----------------------------------------------------------

  -Total Gradient:
     Atom            X                  Y                   Z
    ------   -----------------  -----------------  -----------------
       1        0.000000187407    -0.000000040933     0.000000055052
       2       -0.000000046158     0.000000142044     0.000000043058
       3       -0.000000123040    -0.000000105865     0.000000045674
       4       -0.000000025127     0.000000003905    -0.000000172918
       5       -0.000000018056    -0.000000137932    -0.000000056013
       6        0.000000088186     0.000000010879    -0.000000047860
       7       -0.000000000399     0.000000023191     0.000000145012
       8       -0.000000131830     0.000000101952    -0.000000030815
       9       -0.000000083542    -0.000000064050    -0.000000083125
      10        0.000000005125     0.000000024323     0.000000132844
      11        0.000000102343     0.000000092219    -0.000000015589
      12       -0.000000172269     0.000000186326     0.000000221405
      13        0.000000017421     0.000000020637    -0.000000315275
      14        0.000000185019    -0.000000124473     0.000000080433
      15        0.000000096175     0.000000111974     0.000000122329
      16       -0.000000015628     0.000000012114    -0.000000186038
      17       -0.000000073427    -0.000000111387     0.000000046031
      18       -0.000000129882     0.000000255359    -0.000000097668
      19        0.000000023158    -0.000000269216    -0.000000095923
      20       -0.000000026372    -0.000000007163     0.000000265933
      21        0.000000045667    -0.000000313142     0.000000235478
      22       -0.000000034088     0.000000076425    -0.000000370196
      23       -0.000000011291     0.000000289498     0.000000048318
      24        0.000000042018     0.000000150085    -0.000000189356
      25        0.000000005548    -0.000000012672     0.000000297165
      26        0.000000093038    -0.000000314100    -0.000000077957

  **** Optimization is complete! (in 15 steps) ****
    Final optimized geometry and variables:
    Molecular point group: c1

    Geometry (in Angstrom), charge = 0, multiplicity = 1:

    C           -3.808989302880     0.911362787594    -0.179384374409
    H           -4.123335391092     1.891287646693     0.178946538006
    H           -4.514284093820     0.171734897997     0.201570278541
    H           -3.885074629129     0.912087858894    -1.267525723842
    C            3.113343160414     1.451424241567     0.209784444967
    H            4.000056247410     1.989048283131    -0.125232605384
    H            3.105050070584     1.466399425600     1.301032533665
    H            2.241945044657     2.004941185402    -0.137842503124
    C           -2.388043063633     0.579959017297     0.260556962467
    H           -2.324913362481     0.596785773072     1.352517825407
    H           -1.707340018422     1.352272349779    -0.102585861212
    C            3.110718788838     0.016639815818    -0.307199115567
    H            3.080846030911     0.020168861011    -1.400326174338
    H            4.048271100127    -0.467386604800    -0.024786784455
    C           -1.937457290797    -0.787361501976    -0.241723002887
    H           -1.939983334937    -0.786002165556    -1.336765518764
    H           -2.675790476366    -1.533044911876     0.067714630268
    C           -0.558208832254    -1.208821442658     0.258837089478
    H           -0.355749759566    -2.234064914160    -0.064211699939
    H           -0.561288171587    -1.224337828192     1.353699004621
    C            0.575398858686    -0.310840491736    -0.224577609737
    H            0.550353340478    -0.256857536686    -1.318875464176
    H            0.420210753544     0.704965426936     0.142820334720
    C            1.943638860182    -0.814182900086     0.221371386063
    H            1.980164527714    -0.830665926890     1.315737594083
    H            2.060743923456    -1.850563156762    -0.108093250881

*** Psi4 exiting successfully. Buy a developer a beer!
