                              Psi4 1.0.0 Driver

  ==> Input File <==

--------------------------------------------------------------------------
memory 60 Gb

molecule molecule_55_psi {
0 1
C           -2.440094026885     1.421368812819    -0.504652099447
H           -1.417922890533     1.638677062205    -0.815409181118
H           -2.636103888382     1.985204136236     0.409115314334
H           -3.107021687979     1.797427753789    -1.280085835815
C            2.783433007808     0.974192401991     0.791213079449
H            1.952335772856     0.963030973147     1.494076914574
H            3.171663372259     1.991939583258     0.745013871877
H            3.568660887764     0.336018991499     1.198755717269
C           -2.649232498678    -0.071156846867    -0.274092546821
H           -2.409501270371    -0.620401078122    -1.186988036164
H           -3.705925673479    -0.261242565754    -0.073638016752
C            2.364976426853     0.477991758883    -0.590420794938
H            1.626963678755     1.159922310568    -1.023772553816
H            3.236374284162     0.519017120406    -1.246783542461
C           -1.825951492004    -0.618491478761     0.891934048438
H           -2.015231014024    -1.691275687039     0.990759398386
H           -2.176065884072    -0.152963406055     1.817974493973
C           -0.320050392360    -0.392229557665     0.760159455924
H            0.180131691320    -0.820438577871     1.633984071543
H           -0.109537398966     0.679270918268     0.780506508841
C            0.268951331147    -1.010967390893    -0.502554392750
H           -0.050297893614    -2.056632570222    -0.562298404178
H           -0.146802317626    -0.511461760388    -1.382635331383
C            1.793451553893    -0.947365214682    -0.591043381841
H            2.231137477391    -1.511538150673     0.238742175139
H            2.099051640863    -1.460192571227    -1.505650780438
}

set globals {
  reference rhf
  g_convergence gau_verytight
  basis aug-cc-pvtz
  freeze_core true
  scf_type df
  mp_type df
}
optimize('mp2')
--------------------------------------------------------------------------

    Molecular point group: c1
  Charge       = 0
  Multiplicity = 1
  Basis Set: AUG-CC-PVTZ
  Basis Set:
  @DF-RHF Final Energy:  -313.53672819658789
    Total Energy =                       -313.5367281965878306
  Basis Set:
    Molecular point group: c1
  Basis Set: AUG-CC-PVTZ
  Basis Set:
  Basis Set:
	 Reference Energy          =    -313.5367281965878874 [Eh]
	 Singles Energy            =      -0.0000000000000001 [Eh]
	 Same-Spin Energy          =      -0.3171136522658244 [Eh]
	 Opposite-Spin Energy      =      -1.1267016644314443 [Eh]
	 Correlation Energy        =      -1.4438153166972689 [Eh]
	 Total Energy              =    -314.9805435132851699 [Eh]
	 SCS Total Energy          =    -314.9944747446609199 [Eh]
  Basis Set: AUG-CC-PVTZ
  Basis Set:
  @DF-RHF Final Energy:  -313.53672862718622
    Total Energy =                       -313.5367286271862213
  Basis Set:
  Basis Set: AUG-CC-PVTZ
  Basis Set:
  @DF-RHF Final Energy:  -313.53672858056837
    Total Energy =                       -313.5367285805690472
  @DF-RHF Final Energy:  -313.53672833521841
    Total Energy =                       -313.5367283352191521
  @DF-RHF Final Energy:  -313.53673002112305
    Total Energy =                       -313.5367300211227075
  @DF-RHF Final Energy:  -313.53672835098780
    Total Energy =                       -313.5367283509882554
  @DF-RHF Final Energy:  -313.53672828775740
    Total Energy =                       -313.5367282877575121
  @DF-RHF Final Energy:  -313.53672859945715
    Total Energy =                       -313.5367285994573194
  @DF-RHF Final Energy:  -313.53672834916171
    Total Energy =                       -313.5367283491623880
  @DF-RHF Final Energy:  -313.53672828749524
    Total Energy =                       -313.5367282874954071
  @DF-RHF Final Energy:  -313.53672823441025
    Total Energy =                       -313.5367282344099635
  @DF-RHF Final Energy:  -313.53672820765956
    Total Energy =                       -313.5367282076595075
  @DF-RHF Final Energy:  -313.53672844431367
    Total Energy =                       -313.5367284443141216
  @DF-RHF Final Energy:  -313.53672826663296
    Total Energy =                       -313.5367282666333040
  @DF-RHF Final Energy:  -313.53672818327777
    Total Energy =                       -313.5367281832777735
  @DF-RHF Final Energy:  -313.53672820865523
    Total Energy =                       -313.5367282086544378
  @DF-RHF Final Energy:  -313.53672817069230
    Total Energy =                       -313.5367281706928111
  @DF-RHF Final Energy:  -313.53672819361748
    Total Energy =                       -313.5367281936179893
  @DF-RHF Final Energy:  -313.53672822529097
    Total Energy =                       -313.5367282252909149
  @DF-RHF Final Energy:  -313.53672847839863
    Total Energy =                       -313.5367284783980040
  @DF-RHF Final Energy:  -313.53672825555680
    Total Energy =                       -313.5367282555563975
  @DF-RHF Final Energy:  -313.53672821962812
    Total Energy =                       -313.5367282196274914
  @DF-RHF Final Energy:  -313.53672821174075
    Total Energy =                       -313.5367282117408649
  @DF-RHF Final Energy:  -313.53672820346543
    Total Energy =                       -313.5367282034656000
  @DF-RHF Final Energy:  -313.53672821986277
    Total Energy =                       -313.5367282198628232
  @DF-RHF Final Energy:  -313.53672819984678
    Total Energy =                       -313.5367281998465501
	 Singles Energy            =      -0.0000000000000001 [Eh]
	 Same-Spin Energy          =      -0.3171136513319445 [Eh]
	 Opposite-Spin Energy      =      -1.1267016602840787 [Eh]
	 Correlation Energy        =      -1.4438153116160233 [Eh]
	 Total Energy              =    -314.9805435114628267 [Eh]
	 SCS Total Energy          =    -314.9944747426316667 [Eh]
  Charge       = 0
  Multiplicity = 1
  Basis Set: AUG-CC-PVTZ
  Basis Set:

    Orbital Energies (a.u.)
    -----------------------

    Doubly Occupied:

       1A    -11.213098     2A    -11.212201     3A    -11.210857
       4A    -11.210721     5A    -11.210231     6A    -11.209052
       7A    -11.207302     8A    -11.205821     9A     -1.095078
      10A     -1.058967    11A     -1.003766    12A     -0.950395
      13A     -0.886602    14A     -0.835139    15A     -0.784621
      16A     -0.752109    17A     -0.644638    18A     -0.632417
      19A     -0.610491    20A     -0.599316    21A     -0.576724
      22A     -0.552376    23A     -0.545666    24A     -0.533609
      25A     -0.521329    26A     -0.498678    27A     -0.488933
      28A     -0.472064    29A     -0.469649    30A     -0.461428
      31A     -0.445972    32A     -0.436474    33A     -0.431345

  @DF-RHF Final Energy:  -313.53672820060626

   => Energetics <=

    Nuclear Repulsion Energy =            401.8324850608054248
    One-Electron Energy =               -1218.8042891163800050
    Two-Electron Energy =                 503.4350758549686020
    DFT Exchange-Correlation Energy =       0.0000000000000000
    Empirical Dispersion Energy =           0.0000000000000000
    PCM Polarization Energy =               0.0000000000000000
    EFP Energy =                            0.0000000000000000
    Total Energy =                       -313.5367282006059781
  Basis Set:
    Molecular point group: c1
  Basis Set: AUG-CC-PVTZ
  Basis Set:
  Basis Set:
	 Reference Energy          =    -313.5367282006062624 [Eh]
	 Singles Energy            =      -0.0000000000000003 [Eh]
	 Same-Spin Energy          =      -0.3171136417483539 [Eh]
	 Opposite-Spin Energy      =      -1.1267016683089466 [Eh]
	 Correlation Energy        =      -1.4438153100573008 [Eh]
	 Total Energy              =    -314.9805435106635514 [Eh]

	 ================> DF-SCS-MP2 Energies <==================
	-----------------------------------------------------------
	 SCS Same-Spin Scale       =       0.3333333333333333 [-]
	 SCS Opposite-Spin Scale   =       1.2000000000000000 [-]
	 SCS Same-Spin Energy      =      -0.1057045472494513 [Eh]
	 SCS Opposite-Spin Energy  =      -1.3520420019707358 [Eh]
	 SCS Correlation Energy    =      -1.4577465492201873 [Eh]
	 SCS Total Energy          =    -314.9944747498264519 [Eh]
	-----------------------------------------------------------

  -Total Gradient:
     Atom            X                  Y                   Z
    ------   -----------------  -----------------  -----------------
       1       -0.000000048225     0.000000201219     0.000000013031
       2       -0.000000056817    -0.000000038210     0.000000006877
       3        0.000000022868    -0.000000088099    -0.000000156029
       4        0.000000096914    -0.000000000518     0.000000048743
       5        0.000000221259     0.000000101819     0.000000089854
       6       -0.000000043516    -0.000000025326    -0.000000042990
       7       -0.000000000202    -0.000000023291     0.000000025056
       8       -0.000000006742     0.000000010304    -0.000000000786
       9       -0.000000188429    -0.000000166142    -0.000000068477
      10       -0.000000041740     0.000000061646     0.000000167392
      11        0.000000132334     0.000000009556    -0.000000021692
      12       -0.000000097662     0.000000184508    -0.000000326619
      13        0.000000211725    -0.000000146250     0.000000099491
      14       -0.000000143526     0.000000051981     0.000000053700
      15        0.000000072980    -0.000000193221     0.000000307832
      16        0.000000090963     0.000000252962     0.000000014908
      17        0.000000087789    -0.000000132861    -0.000000202218
      18        0.000000104168     0.000000395405     0.000000147738
      19       -0.000000076973     0.000000143514    -0.000000235317
      20       -0.000000120336    -0.000000460222    -0.000000079711
      21       -0.000000200849    -0.000000161461    -0.000000241634
      22        0.000000010121     0.000000299825     0.000000029890
      23        0.000000157698    -0.000000131160     0.000000279605
      24       -0.000000036625    -0.000000207397     0.000000020515
      25       -0.000000102413     0.000000043206    -0.000000108529
      26       -0.000000044765     0.000000018211     0.000000179371

  **** Optimization is complete! (in 27 steps) ****
    Final optimized geometry and variables:
    Molecular point group: c1

    Geometry (in Angstrom), charge = 0, multiplicity = 1:

    C           -2.440101461244     1.421362394486    -0.504662095781
    H           -1.417930590140     1.638672445041    -0.815419442228
    H           -2.636115311391     1.985204798180     0.409100055869
    H           -3.107029601291     1.797411562654    -1.280100242320
    C            2.783448772710     0.974175029174     0.791226360640
    H            1.952359571524     0.962998271212     1.494099599646
    H            3.171677600555     1.991923289940     0.745043839770
    H            3.568681621569     0.335993804826     1.198746804939
    C           -2.649235731896    -0.071162397791    -0.274091099001
    H           -2.409506905747    -0.620412531615    -1.186984422348
    H           -3.705928547448    -0.261248800308    -0.073632145936
    C            2.364975133979     0.478001460439    -0.590411673247
    H            1.626957299249     1.159939750496    -1.023741619858
    H            3.236363983544     0.519037936648    -1.246785305350
    C           -1.825950302043    -0.618490660018     0.891935644858
    H           -2.015228787983    -1.691274713750     0.990765084931
    H           -2.176061576898    -0.152960050552     1.817976046281
    C           -0.320050625105    -0.392226135383     0.760155884270
    H            0.180134686875    -0.820435943273     1.633978235486
    H           -0.109539677321     0.679274768204     0.780506234138
    C            0.268948789847    -1.010959267733    -0.502560799531
    H           -0.050300781794    -2.056624141362    -0.562308821400
    H           -0.146805830289    -0.511449290545    -1.382639003461
    C            1.793449121515    -0.947355918462    -0.591049531585
    H            2.231134970185    -1.511536705737     0.238731166218
    H            2.099049287491    -1.460176018459    -1.505661214966

*** Psi4 exiting successfully. Buy a developer a beer!
