                              Psi4 1.0.0 Driver

  ==> Input File <==

--------------------------------------------------------------------------
memory 60 Gb

molecule molecule_10_psi {
0 1
C           -2.262097364716     0.126223976438    -1.545979779119
H           -2.618883578503     1.154650354798    -1.625447862368
H           -2.778017582758    -0.467016358368    -2.300586120938
H           -1.200786756601     0.123867955806    -1.794814787404
C            2.264701866932    -0.127367051407    -1.542009105709
H            1.203811509764    -0.125095023522    -1.792636494278
H            2.621527239303    -1.155884861683    -1.620126509048
H            2.781949902314     0.465277473253    -2.296176141215
C           -2.509569158353    -0.425371713591    -0.146404371243
H           -2.112583789484    -1.440369081357    -0.076661441201
H           -3.585319516221    -0.506670315982     0.024375595651
C            2.509865587980     0.425228142593    -0.142421196809
H            3.585335940934     0.506546833189     0.030109393015
H            2.112865545935     1.440317370718    -0.074087886159
C           -1.905178827064     0.443501227085     0.956276977077
H           -2.122491476220    -0.010479265148     1.927415263808
H           -2.402536442547     1.417929842973     0.948632536919
C           -0.395911628470     0.652378339849     0.837015001290
H           -0.057574748583     1.271563074494     1.673743305419
H           -0.174536887676     1.220875196707    -0.069437354072
C            0.394470256074    -0.651733132771     0.838165768586
H            0.054690096256    -1.270308211757     1.674759760832
H            0.174641642408    -1.220889531550    -0.068250757880
C            1.903537688575    -0.442779420803     0.959880061709
H            2.119176786144     0.011949604266     1.931043143517
H            2.400894146079    -1.417221977610     0.953853509441
}

set globals {
  reference rhf
  g_convergence gau_verytight
  basis aug-cc-pvtz
  freeze_core true
  scf_type df
  mp_type df
}
optimize('mp2')
--------------------------------------------------------------------------

    Molecular point group: c1
  Charge       = 0
  Multiplicity = 1
  Basis Set: AUG-CC-PVTZ
  Basis Set:
  @DF-RHF Final Energy:  -313.53941914247343
    Total Energy =                       -313.5394191424738892
  Basis Set:
    Molecular point group: c1
  Basis Set: AUG-CC-PVTZ
  Basis Set:
  Basis Set:
	 Reference Energy          =    -313.5394191424734345 [Eh]
	 Singles Energy            =      -0.0000000000000005 [Eh]
	 Same-Spin Energy          =      -0.3175584444029134 [Eh]
	 Opposite-Spin Energy      =      -1.1269664941591588 [Eh]
	 Correlation Energy        =      -1.4445249385620726 [Eh]
	 Total Energy              =    -314.9839440810355313 [Eh]
	 SCS Total Energy          =    -314.9976317502653842 [Eh]
  Basis Set: AUG-CC-PVTZ
  Basis Set:
  @DF-RHF Final Energy:  -313.53941795811608
    Total Energy =                       -313.5394179581163030
  Basis Set:
  Basis Set: AUG-CC-PVTZ
  Basis Set:
  @DF-RHF Final Energy:  -313.53941901944785
    Total Energy =                       -313.5394190194478483
  @DF-RHF Final Energy:  -313.53941658958149
    Total Energy =                       -313.5394165895817196
  @DF-RHF Final Energy:  -313.53941901801227
    Total Energy =                       -313.5394190180123246
  @DF-RHF Final Energy:  -313.53941890081205
    Total Energy =                       -313.5394189008121657
  @DF-RHF Final Energy:  -313.53941906895795
    Total Energy =                       -313.5394190689577840
  @DF-RHF Final Energy:  -313.53941866743651
    Total Energy =                       -313.5394186674367916
  @DF-RHF Final Energy:  -313.53941874010388
    Total Energy =                       -313.5394187401041108
  @DF-RHF Final Energy:  -313.53941890543780
    Total Energy =                       -313.5394189054378558
  @DF-RHF Final Energy:  -313.53941906382727
    Total Energy =                       -313.5394190638272676
  @DF-RHF Final Energy:  -313.53941879490480
    Total Energy =                       -313.5394187949048046
  @DF-RHF Final Energy:  -313.53941884202357
    Total Energy =                       -313.5394188420229966
  @DF-RHF Final Energy:  -313.53941897260546
    Total Energy =                       -313.5394189726059153
  @DF-RHF Final Energy:  -313.53941909205741
    Total Energy =                       -313.5394190920573578
  @DF-RHF Final Energy:  -313.53941908309298
    Total Energy =                       -313.5394190830930938
  @DF-RHF Final Energy:  -313.53941874065748
    Total Energy =                       -313.5394187406573110
  @DF-RHF Final Energy:  -313.53941902217900
    Total Energy =                       -313.5394190221789472
  @DF-RHF Final Energy:  -313.53941903902125
    Total Energy =                       -313.5394190390211406
  @DF-RHF Final Energy:  -313.53941897214833
    Total Energy =                       -313.5394189721481553
  @DF-RHF Final Energy:  -313.53941898406600
    Total Energy =                       -313.5394189840660033
  @DF-RHF Final Energy:  -313.53941906385370
    Total Energy =                       -313.5394190638538703
  @DF-RHF Final Energy:  -313.53941901917761
    Total Energy =                       -313.5394190191779558
  @DF-RHF Final Energy:  -313.53941898883937
    Total Energy =                       -313.5394189888395431
  @DF-RHF Final Energy:  -313.53941902096585
    Total Energy =                       -313.5394190209656813
  @DF-RHF Final Energy:  -313.53941896157409
    Total Energy =                       -313.5394189615738014
  @DF-RHF Final Energy:  -313.53941894413384
    Total Energy =                       -313.5394189441337289
  @DF-RHF Final Energy:  -313.53941898784029
    Total Energy =                       -313.5394189878403495
  @DF-RHF Final Energy:  -313.53941898266879
    Total Energy =                       -313.5394189826686215
  @DF-RHF Final Energy:  -313.53941890554074
    Total Energy =                       -313.5394189055402876
	 Singles Energy            =      -0.0000000000000001 [Eh]
	 Same-Spin Energy          =      -0.3175585792174598 [Eh]
	 Opposite-Spin Energy      =      -1.1269665935776327 [Eh]
	 Correlation Energy        =      -1.4445251727950925 [Eh]
	 Total Energy              =    -314.9839440783358100 [Eh]
	 SCS Total Energy          =    -314.9976316775730538 [Eh]
  Charge       = 0
  Multiplicity = 1
  Basis Set: AUG-CC-PVTZ
  Basis Set:

    Orbital Energies (a.u.)
    -----------------------

    Doubly Occupied:

       1A    -11.212147     2A    -11.212147     3A    -11.210712
       4A    -11.210687     5A    -11.209481     6A    -11.208879
       7A    -11.207323     8A    -11.207322     9A     -1.096084
      10A     -1.060256    11A     -1.003510    12A     -0.947513
      13A     -0.887966    14A     -0.842963    15A     -0.781969
      16A     -0.743604    17A     -0.648206    18A     -0.634973
      19A     -0.613144    20A     -0.604648    21A     -0.568739
      22A     -0.550009    23A     -0.542986    24A     -0.537791
      25A     -0.522788    26A     -0.501200    27A     -0.495270
      28A     -0.471660    29A     -0.462663    30A     -0.459125
      31A     -0.444415    32A     -0.438342    33A     -0.435803

  @DF-RHF Final Energy:  -313.53941897747274

   => Energetics <=

    Nuclear Repulsion Energy =            404.7235637406188857
    One-Electron Energy =               -1224.5773187594854789
    Two-Electron Energy =                 506.3143360413939149
    DFT Exchange-Correlation Energy =       0.0000000000000000
    Empirical Dispersion Energy =           0.0000000000000000
    PCM Polarization Energy =               0.0000000000000000
    EFP Energy =                            0.0000000000000000
    Total Energy =                       -313.5394189774727352
  Basis Set:
    Molecular point group: c1
  Basis Set: AUG-CC-PVTZ
  Basis Set:
  Basis Set:
	 Reference Energy          =    -313.5394189774727352 [Eh]
	 Singles Energy            =      -0.0000000000000000 [Eh]
	 Same-Spin Energy          =      -0.3175585470031383 [Eh]
	 Opposite-Spin Energy      =      -1.1269665615758917 [Eh]
	 Correlation Energy        =      -1.4445251085790300 [Eh]
	 Total Energy              =    -314.9839440860517925 [Eh]

	 ================> DF-SCS-MP2 Energies <==================
	-----------------------------------------------------------
	 SCS Same-Spin Scale       =       0.3333333333333333 [-]
	 SCS Opposite-Spin Scale   =       1.2000000000000000 [-]
	 SCS Same-Spin Energy      =      -0.1058528490010461 [Eh]
	 SCS Opposite-Spin Energy  =      -1.3523598738910700 [Eh]
	 SCS Correlation Energy    =      -1.4582127228921162 [Eh]
	 SCS Total Energy          =    -314.9976317003648774 [Eh]
	-----------------------------------------------------------

  -Total Gradient:
     Atom            X                  Y                   Z
    ------   -----------------  -----------------  -----------------
       1        0.000000034039     0.000000035360    -0.000000292039
       2        0.000000078970    -0.000000276489     0.000000048479
       3        0.000000122370     0.000000160757     0.000000108621
       4       -0.000000325641    -0.000000022869     0.000000081534
       5       -0.000000105759    -0.000000187504    -0.000000306091
       6        0.000000402729     0.000000090055     0.000000104685
       7       -0.000000092510     0.000000339693     0.000000057311
       8       -0.000000146685    -0.000000172001     0.000000181199
       9        0.000000012317    -0.000000285117     0.000000287965
      10       -0.000000160444     0.000000455039    -0.000000034051
      11        0.000000168325    -0.000000047978    -0.000000022938
      12        0.000000122025     0.000000410100     0.000000252135
      13       -0.000000197043     0.000000053775    -0.000000000486
      14        0.000000138696    -0.000000354823    -0.000000037504
      15       -0.000000126436     0.000000231276     0.000000314243
      16        0.000000210292     0.000000247775    -0.000000412593
      17        0.000000281614    -0.000000458112     0.000000036641
      18        0.000000379269     0.000000475324    -0.000000420300
      19       -0.000000073854    -0.000000201435    -0.000000362060
      20       -0.000000235318    -0.000000341631     0.000000591658
      21       -0.000000523860    -0.000000510927    -0.000000303514
      22        0.000000045175     0.000000157961    -0.000000300604
      23        0.000000087583     0.000000336789     0.000000511975
      24        0.000000112566    -0.000000303243     0.000000210994
      25       -0.000000037056    -0.000000142049    -0.000000268063
      26       -0.000000171367     0.000000310272    -0.000000027194

  **** Optimization is complete! (in 31 steps) ****
    Final optimized geometry and variables:
    Molecular point group: c1

    Geometry (in Angstrom), charge = 0, multiplicity = 1:

    C           -2.262081522688     0.126249661852    -1.545983157913
    H           -2.618830167874     1.154690245091    -1.625450003523
    H           -2.778016067888    -0.466969153695    -2.300597931460
    H           -1.200767735106     0.123856672532    -1.794807361095
    C            2.264731086738    -0.127398276978    -1.541999158433
    H            1.203845912570    -0.125190620262    -1.792647333758
    H            2.621614783636    -1.155897916295    -1.620088067367
    H            2.781961543272     0.465259158760    -2.296168250637
    C           -2.509590357713    -0.425345257941    -0.146414760645
    H           -2.112649367002    -1.440361069196    -0.076674178366
    H           -3.585347025333    -0.506598548444     0.024352453220
    C            2.509837389716     0.425238773000    -0.142418938051
    H            3.585299520365     0.506620877087     0.030133227413
    H            2.112776894287     1.440305738645    -0.074115087164
    C           -1.905177058345     0.443493927266     0.956279526941
    H           -2.122483375905    -0.010509107293     1.927410318471
    H           -2.402527772244     1.417927622804     0.948663613304
    C           -0.395908567445     0.652366537806     0.837003579910
    H           -0.057567285491     1.271562277132     1.673722503197
    H           -0.174531220514     1.220849909701    -0.069458069795
    C            0.394471300295    -0.651744590227     0.838173460652
    H            0.054693595892    -1.270309798020     1.674776714675
    H            0.174648613179    -1.220910834146    -0.068238228742
    C            1.903533595408    -0.442781073708     0.959882892535
    H            2.119174458978     0.011945017811     1.931046855500
    H            2.400897147575    -1.417219459196     0.953844917924

*** Psi4 exiting successfully. Buy a developer a beer!
