                              Psi4 1.0.0 Driver

  ==> Input File <==

--------------------------------------------------------------------------
memory 60 Gb

molecule molecule_85_psi {
0 1
C            2.640243251955    -0.974445208196    -0.636628057091
H            3.560390422352    -0.488241661629    -0.307610983025
H            2.297763139555    -0.462938095711    -1.535994160318
H            2.883332437000    -2.000163424014    -0.912960633615
C           -2.300458585945    -1.477372788674    -0.395254858047
H           -1.461079702604    -1.660947065317    -1.066093954984
H           -2.544353545475    -2.421794542383     0.091011684699
H           -3.154766097765    -1.184286821750    -1.007746822048
C            1.585182635610    -0.936900491932     0.463839823941
H            1.914827503335    -1.555554942591     1.301820099727
H            0.662075341410    -1.390067640869     0.095940931254
C           -1.979926969991    -0.396035192057     0.630999938752
H           -2.833362590896    -0.286307984709     1.304547837210
H           -1.141267082210    -0.715096595699     1.250443977523
C            1.306201908087     0.474555432038     0.978542660863
H            2.222925002544     0.867541903358     1.428996982669
H            0.568561504471     0.431967567663     1.783270289075
C            0.839167835071     1.456772968376    -0.095720599611
H            1.649960923631     1.614894583517    -0.811342896912
H            0.658610620421     2.427944501361     0.374531991280
C           -0.420875162390     1.052841906053    -0.863694928540
H           -0.579084995292     1.800428096157    -1.644493132006
H           -0.253726727608     0.109303116865    -1.389232983438
C           -1.691208777491     0.965167066481    -0.006829356843
H           -1.637341807238     1.729628657416     0.774540514112
H           -2.555397347054     1.224020522502    -0.625672649957
}

set globals {
  reference rhf
  g_convergence gau_verytight
  basis aug-cc-pvtz
  freeze_core true
  scf_type df
  mp_type df
}
optimize('mp2')
--------------------------------------------------------------------------

    Molecular point group: c1
  Charge       = 0
  Multiplicity = 1
  Basis Set: AUG-CC-PVTZ
  Basis Set:
  @DF-RHF Final Energy:  -313.53413810143502
    Total Energy =                       -313.5341381014351327
  Basis Set:
    Molecular point group: c1
  Basis Set: AUG-CC-PVTZ
  Basis Set:
  Basis Set:
	 Reference Energy          =    -313.5341381014350191 [Eh]
	 Singles Energy            =      -0.0000000000000004 [Eh]
	 Same-Spin Energy          =      -0.3183302890172320 [Eh]
	 Opposite-Spin Energy      =      -1.1281291155913991 [Eh]
	 Correlation Energy        =      -1.4464594046086314 [Eh]
	 Total Energy              =    -314.9805975060436367 [Eh]
	 SCS Total Energy          =    -314.9940031364837978 [Eh]
  Basis Set: AUG-CC-PVTZ
  Basis Set:
  @DF-RHF Final Energy:  -313.53413814048997
    Total Energy =                       -313.5341381404900858
  Basis Set:
  Basis Set: AUG-CC-PVTZ
  Basis Set:
  @DF-RHF Final Energy:  -313.53413898207737
    Total Energy =                       -313.5341389820772520
  @DF-RHF Final Energy:  -313.53413817683412
    Total Energy =                       -313.5341381768341762
  @DF-RHF Final Energy:  -313.53413822038715
    Total Energy =                       -313.5341382203869216
  @DF-RHF Final Energy:  -313.53413827696113
    Total Energy =                       -313.5341382769614711
  @DF-RHF Final Energy:  -313.53413832455647
    Total Energy =                       -313.5341383245563520
  @DF-RHF Final Energy:  -313.53413843830833
    Total Energy =                       -313.5341384383085597
  @DF-RHF Final Energy:  -313.53413822935607
    Total Energy =                       -313.5341382293564720
  @DF-RHF Final Energy:  -313.53414020110978
    Total Energy =                       -313.5341402011099490
  @DF-RHF Final Energy:  -313.53413820977602
    Total Energy =                       -313.5341382097763017
  @DF-RHF Final Energy:  -313.53413884535775
    Total Energy =                       -313.5341388453579157
  @DF-RHF Final Energy:  -313.53413822661798
    Total Energy =                       -313.5341382266178698
  @DF-RHF Final Energy:  -313.53413829926870
    Total Energy =                       -313.5341382992687613
  @DF-RHF Final Energy:  -313.53413822252355
    Total Energy =                       -313.5341382225234383
  @DF-RHF Final Energy:  -313.53413809498318
    Total Energy =                       -313.5341380949830636
  @DF-RHF Final Energy:  -313.53413811983864
    Total Energy =                       -313.5341381198385307
  @DF-RHF Final Energy:  -313.53413810626631
    Total Energy =                       -313.5341381062662549
  @DF-RHF Final Energy:  -313.53413800425182
    Total Energy =                       -313.5341380042518722
  @DF-RHF Final Energy:  -313.53413819507392
    Total Energy =                       -313.5341381950742061
	 Singles Energy            =      -0.0000000000000000 [Eh]
	 Same-Spin Energy          =      -0.3183302817639661 [Eh]
	 Opposite-Spin Energy      =      -1.1281290278821796 [Eh]
	 Correlation Energy        =      -1.4464593096461458 [Eh]
	 Total Energy              =    -314.9805975047200945 [Eh]
	 SCS Total Energy          =    -314.9940031224538757 [Eh]
  Charge       = 0
  Multiplicity = 1
  Basis Set: AUG-CC-PVTZ
  Basis Set:

    Orbital Energies (a.u.)
    -----------------------

    Doubly Occupied:

       1A    -11.212184     2A    -11.212101     3A    -11.211194
       4A    -11.210392     5A    -11.209927     6A    -11.209429
       7A    -11.207213     8A    -11.207126     9A     -1.095126
      10A     -1.056698    11A     -1.006707    12A     -0.945484
      13A     -0.893738    14A     -0.838081    15A     -0.785041
      16A     -0.741859    17A     -0.648551    18A     -0.640998
      19A     -0.605281    20A     -0.597897    21A     -0.577005
      22A     -0.550912    23A     -0.548810    24A     -0.535885
      25A     -0.512060    26A     -0.506520    27A     -0.494007
      28A     -0.473282    29A     -0.465292    30A     -0.460572
      31A     -0.440611    32A     -0.437469    33A     -0.433117

  @DF-RHF Final Energy:  -313.53413819331388

   => Energetics <=

    Nuclear Repulsion Energy =            410.9554625294025527
    One-Electron Energy =               -1237.0380574245859862
    Two-Electron Energy =                 512.5484567018693269
    DFT Exchange-Correlation Energy =       0.0000000000000000
    Empirical Dispersion Energy =           0.0000000000000000
    PCM Polarization Energy =               0.0000000000000000
    EFP Energy =                            0.0000000000000000
    Total Energy =                       -313.5341381933141065
  Basis Set:
    Molecular point group: c1
  Basis Set: AUG-CC-PVTZ
  Basis Set:
  Basis Set:
	 Reference Energy          =    -313.5341381933138791 [Eh]
	 Singles Energy            =      -0.0000000000000001 [Eh]
	 Same-Spin Energy          =      -0.3183302823165778 [Eh]
	 Opposite-Spin Energy      =      -1.1281290299431144 [Eh]
	 Correlation Energy        =      -1.4464593122596925 [Eh]
	 Total Energy              =    -314.9805975055735985 [Eh]

	 ================> DF-SCS-MP2 Energies <==================
	-----------------------------------------------------------
	 SCS Same-Spin Scale       =       0.3333333333333333 [-]
	 SCS Opposite-Spin Scale   =       1.2000000000000000 [-]
	 SCS Same-Spin Energy      =      -0.1061100941055259 [Eh]
	 SCS Opposite-Spin Energy  =      -1.3537548359317373 [Eh]
	 SCS Correlation Energy    =      -1.4598649300372635 [Eh]
	 SCS Total Energy          =    -314.9940031233511490 [Eh]
	-----------------------------------------------------------

  -Total Gradient:
     Atom            X                  Y                   Z
    ------   -----------------  -----------------  -----------------
       1       -0.000000044379    -0.000000060430    -0.000000060814
       2       -0.000000083673    -0.000000058871    -0.000000027844
       3        0.000000025921    -0.000000173432     0.000000188544
       4       -0.000000040485     0.000000134571     0.000000091721
       5       -0.000000086567     0.000000354794     0.000000328646
       6        0.000000332231    -0.000000055417    -0.000000200130
       7       -0.000000137156    -0.000000215989     0.000000266620
       8       -0.000000337080     0.000000090768    -0.000000183684
       9       -0.000000430853    -0.000000081154     0.000000039027
      10       -0.000000147180     0.000000110132    -0.000000081916
      11        0.000000279153     0.000000149467     0.000000024908
      12       -0.000000241868    -0.000000399005    -0.000000924512
      13       -0.000000476536     0.000000111969     0.000000081767
      14        0.000000739215    -0.000000240202     0.000000637631
      15        0.000000417359     0.000000000538    -0.000000305157
      16       -0.000000074031     0.000000036879    -0.000000062940
      17       -0.000000096763    -0.000000023856     0.000000096475
      18       -0.000000224664    -0.000000205969     0.000000154715
      19        0.000000171477     0.000000023651    -0.000000206999
      20       -0.000000015250     0.000000182217     0.000000016786
      21        0.000000430043     0.000000229084     0.000000022619
      22       -0.000000079689    -0.000000049728     0.000000033995
      23        0.000000459737    -0.000000085898    -0.000000241970
      24        0.000000606742    -0.000000440531     0.000000345584
      25        0.000000010480     0.000000604122     0.000000627344
      26       -0.000000956182     0.000000062288    -0.000000660415

  **** Optimization is complete! (in 21 steps) ****
    Final optimized geometry and variables:
    Molecular point group: c1

    Geometry (in Angstrom), charge = 0, multiplicity = 1:

    C            2.640245710603    -0.974440535444    -0.636630663174
    H            3.560391800164    -0.488240393747    -0.307607809075
    H            2.297769596668    -0.462927977580    -1.535994143960
    H            2.883334672026    -2.000156502029    -0.912968627242
    C           -2.300465928838    -1.477374850542    -0.395247173410
    H           -1.461090498694    -1.660954301246    -1.066088604094
    H           -2.544360936696    -2.421793377652     0.091024850380
    H           -3.154775134997    -1.184290124761    -1.007736751152
    C            1.585181703193    -0.936900235477     0.463833778869
    H            1.914818372489    -1.555563089817     1.301810115392
    H            0.662075507115    -1.390058829720     0.095926530774
    C           -1.979928523757    -0.396032578873     0.631000633337
    H           -2.833362726208    -0.286299250069     1.304549522552
    H           -1.141268735138    -0.715093085617     1.250444696898
    C            1.306205210434     0.474552615932     0.978544375117
    H            2.222929591726     0.867537474460     1.428996275544
    H            0.568568664272     0.431961333673     1.783274350388
    C            0.839167470314     1.456774009979    -0.095713167106
    H            1.649961235335     1.614903224169    -0.811333068470
    H            0.658604258440     2.427942603097     0.374543662360
    C           -0.420869595260     1.052839855329    -0.863694420932
    H           -0.579076114681     1.800425421808    -1.644493741628
    H           -0.253715864774     0.109301087539    -1.389230221352
    C           -1.691209109555     0.965164826184    -0.006838249914
    H           -1.637351683577     1.729634594686     0.774524947145
    H           -2.555394556875     1.224008332479    -0.625691719985

*** Psi4 exiting successfully. Buy a developer a beer!
