                              Psi4 1.0.0 Driver

  ==> Input File <==

--------------------------------------------------------------------------
memory 60 Gb

molecule molecule_50_psi {
0 1
C           -2.660035785019     1.584622057915    -0.012167147731
H           -1.940236620372     2.258633155412     0.455185783524
H           -3.443437462667     1.379591184042     0.718673219016
H           -3.113113167677     2.109397324650    -0.852908776533
C            2.749914238589     1.583699622259     0.286831749094
H            3.722577317640     1.186390807649    -0.006689140827
H            2.688104988752     1.537462566394     1.374993670474
H            2.712785468238     2.632504187902    -0.006772409018
C           -1.979211596861     0.294576903684    -0.452622753650
H           -1.212008161568     0.524782341241    -1.194437545890
H           -2.702762584585    -0.358043632622    -0.949335190630
C            1.623388698981     0.780282135289    -0.351109588857
H            0.661774386348     1.207432150962    -0.062624052824
H            1.682516940726     0.861612582499    -1.440087887151
C           -1.362407227658    -0.455426299581     0.721893333701
H           -2.156563290144    -0.697779524520     1.434472025166
H           -0.672322639055     0.204304776474     1.256284951657
C           -0.646346517758    -1.743991711415     0.325070226833
H           -1.361992764291    -2.404176074011    -0.174462210619
H           -0.326980558436    -2.264913019068     1.232427512537
C            0.578238027578    -1.566054858801    -0.575573153841
H            0.976526564202    -2.560799193342    -0.787261520933
H            0.281176519142    -1.150187945432    -1.542236108703
C            1.686318472742    -0.696131071689     0.032623566892
H            1.662543842084    -0.788294067229     1.124126804986
H            2.662166580001    -1.077189732066    -0.281038206029
}

set globals {
  reference rhf
  g_convergence gau_verytight
  basis aug-cc-pvtz
  freeze_core true
  scf_type df
  mp_type df
}
optimize('mp2')
--------------------------------------------------------------------------

    Molecular point group: c1
  Charge       = 0
  Multiplicity = 1
  Basis Set: AUG-CC-PVTZ
  Basis Set:
  @DF-RHF Final Energy:  -313.53828217460983
    Total Energy =                       -313.5382821746093214
  Basis Set:
    Molecular point group: c1
  Basis Set: AUG-CC-PVTZ
  Basis Set:
  Basis Set:
	 Reference Energy          =    -313.5382821746098330 [Eh]
	 Singles Energy            =      -0.0000000000000001 [Eh]
	 Same-Spin Energy          =      -0.3170674462368170 [Eh]
	 Opposite-Spin Energy      =      -1.1264650895723958 [Eh]
	 Correlation Energy        =      -1.4435325358092128 [Eh]
	 Total Energy              =    -314.9818147104190302 [Eh]
	 SCS Total Energy          =    -314.9957294308422888 [Eh]
  Basis Set: AUG-CC-PVTZ
  Basis Set:
  @DF-RHF Final Energy:  -313.53828222943099
    Total Energy =                       -313.5382822294311040
  Basis Set:
  Basis Set: AUG-CC-PVTZ
  Basis Set:
  @DF-RHF Final Energy:  -313.53828305702370
    Total Energy =                       -313.5382830570234773
  @DF-RHF Final Energy:  -313.53828228611928
    Total Energy =                       -313.5382822861182603
  @DF-RHF Final Energy:  -313.53828221610172
    Total Energy =                       -313.5382822161012655
  @DF-RHF Final Energy:  -313.53828226680275
    Total Energy =                       -313.5382822668021845
  @DF-RHF Final Energy:  -313.53828220515908
    Total Energy =                       -313.5382822051594189
  @DF-RHF Final Energy:  -313.53828213840774
    Total Energy =                       -313.5382821384072258
  @DF-RHF Final Energy:  -313.53828216937433
    Total Energy =                       -313.5382821693745541
  @DF-RHF Final Energy:  -313.53828218631344
    Total Energy =                       -313.5382821863129266
  @DF-RHF Final Energy:  -313.53828231075653
    Total Energy =                       -313.5382823107564718
  @DF-RHF Final Energy:  -313.53828222305901
    Total Energy =                       -313.5382822230595821
  @DF-RHF Final Energy:  -313.53828232228761
    Total Energy =                       -313.5382823222874435
  @DF-RHF Final Energy:  -313.53828216603983
    Total Energy =                       -313.5382821660400054
  @DF-RHF Final Energy:  -313.53828207037941
    Total Energy =                       -313.5382820703796369
  @DF-RHF Final Energy:  -313.53828211101921
    Total Energy =                       -313.5382821110181339
  @DF-RHF Final Energy:  -313.53828198427084
    Total Energy =                       -313.5382819842706112
  @DF-RHF Final Energy:  -313.53828211579201
    Total Energy =                       -313.5382821157913327
  @DF-RHF Final Energy:  -313.53828208383288
    Total Energy =                       -313.5382820838333942
  @DF-RHF Final Energy:  -313.53828206303899
    Total Energy =                       -313.5382820630391052
  @DF-RHF Final Energy:  -313.53828186270204
    Total Energy =                       -313.5382818627017514
  @DF-RHF Final Energy:  -313.53828203004019
    Total Energy =                       -313.5382820300404205
  @DF-RHF Final Energy:  -313.53828214368548
    Total Energy =                       -313.5382821436854783
  @DF-RHF Final Energy:  -313.53828216025011
    Total Energy =                       -313.5382821602500485
  @DF-RHF Final Energy:  -313.53828182231990
    Total Energy =                       -313.5382818223203003
  @DF-RHF Final Energy:  -313.53828207877393
    Total Energy =                       -313.5382820787742730
  @DF-RHF Final Energy:  -313.53828173953957
    Total Energy =                       -313.5382817395388884
  @DF-RHF Final Energy:  -313.53828205619749
    Total Energy =                       -313.5382820561975450
  @DF-RHF Final Energy:  -313.53828211460956
    Total Energy =                       -313.5382821146092169
  @DF-RHF Final Energy:  -313.53828208144773
    Total Energy =                       -313.5382820814470506
  @DF-RHF Final Energy:  -313.53828215400421
    Total Energy =                       -313.5382821540047189
  @DF-RHF Final Energy:  -313.53828215362671
    Total Energy =                       -313.5382821536271649
  @DF-RHF Final Energy:  -313.53828215720245
    Total Energy =                       -313.5382821572020475
  @DF-RHF Final Energy:  -313.53828214053669
    Total Energy =                       -313.5382821405372624
  @DF-RHF Final Energy:  -313.53828211143593
    Total Energy =                       -313.5382821114362741
  @DF-RHF Final Energy:  -313.53828209285746
    Total Energy =                       -313.5382820928575711
  @DF-RHF Final Energy:  -313.53828211140745
    Total Energy =                       -313.5382821114069429
  @DF-RHF Final Energy:  -313.53828213310572
    Total Energy =                       -313.5382821331057244
  @DF-RHF Final Energy:  -313.53828216627323
    Total Energy =                       -313.5382821662731203
	 Singles Energy            =      -0.0000000000000005 [Eh]
	 Same-Spin Energy          =      -0.3170674706357699 [Eh]
	 Opposite-Spin Energy      =      -1.1264650689062627 [Eh]
	 Correlation Energy        =      -1.4435325395420331 [Eh]
	 Total Energy              =    -314.9818147058152817 [Eh]
	 SCS Total Energy          =    -314.9957294058393131 [Eh]
  Charge       = 0
  Multiplicity = 1
  Basis Set: AUG-CC-PVTZ
  Basis Set:

    Orbital Energies (a.u.)
    -----------------------

    Doubly Occupied:

       1A    -11.212194     2A    -11.211698     3A    -11.211194
       4A    -11.210836     5A    -11.210007     6A    -11.209727
       7A    -11.207593     8A    -11.207218     9A     -1.094807
      10A     -1.057553    11A     -1.011641    12A     -0.948040
      13A     -0.883428    14A     -0.824743    15A     -0.796034
      16A     -0.756216    17A     -0.655838    18A     -0.618277
      19A     -0.610409    20A     -0.593620    21A     -0.571574
      22A     -0.568587    23A     -0.548979    24A     -0.524367
      25A     -0.515789    26A     -0.502367    27A     -0.494457
      28A     -0.470451    29A     -0.469191    30A     -0.461806
      31A     -0.442374    32A     -0.438996    33A     -0.435257

  @DF-RHF Final Energy:  -313.53828215025584

   => Energetics <=

    Nuclear Repulsion Energy =            402.8346361944840623
    One-Electron Energy =               -1220.7953005941674292
    Two-Electron Energy =                 504.4223822494284377
    DFT Exchange-Correlation Energy =       0.0000000000000000
    Empirical Dispersion Energy =           0.0000000000000000
    PCM Polarization Energy =               0.0000000000000000
    EFP Energy =                            0.0000000000000000
    Total Energy =                       -313.5382821502548722
  Basis Set:
    Molecular point group: c1
  Basis Set: AUG-CC-PVTZ
  Basis Set:
  Basis Set:
	 Reference Energy          =    -313.5382821502558386 [Eh]
	 Singles Energy            =      -0.0000000000000006 [Eh]
	 Same-Spin Energy          =      -0.3170674924928143 [Eh]
	 Opposite-Spin Energy      =      -1.1264650638246601 [Eh]
	 Correlation Energy        =      -1.4435325563174750 [Eh]
	 Total Energy              =    -314.9818147065732887 [Eh]

	 ================> DF-SCS-MP2 Energies <==================
	-----------------------------------------------------------
	 SCS Same-Spin Scale       =       0.3333333333333333 [-]
	 SCS Opposite-Spin Scale   =       1.2000000000000000 [-]
	 SCS Same-Spin Energy      =      -0.1056891641642714 [Eh]
	 SCS Opposite-Spin Energy  =      -1.3517580765895920 [Eh]
	 SCS Correlation Energy    =      -1.4574472407538641 [Eh]
	 SCS Total Energy          =    -314.9957293910097178 [Eh]
	-----------------------------------------------------------

  -Total Gradient:
     Atom            X                  Y                   Z
    ------   -----------------  -----------------  -----------------
       1        0.000000468696    -0.000000428087    -0.000000361506
       2        0.000000358637     0.000000417162     0.000000337736
       3       -0.000000662283    -0.000000115082     0.000000616511
       4       -0.000000289486     0.000000282951    -0.000000453091
       5       -0.000000396917    -0.000000436061    -0.000000151815
       6        0.000000428472    -0.000000102473    -0.000000050521
       7        0.000000038878     0.000000023006     0.000000439596
       8        0.000000020804     0.000000510020    -0.000000077015
       9       -0.000000238933     0.000000514169     0.000000870469
      10        0.000000675626     0.000000015019    -0.000000689726
      11       -0.000000584695    -0.000000365554    -0.000000337327
      12        0.000000975449    -0.000000750808     0.000000944162
      13       -0.000001178964     0.000000805885     0.000000306688
      14        0.000000132422     0.000000268074    -0.000001551469
      15        0.000000125084    -0.000000894026    -0.000000688784
      16       -0.000000327502    -0.000000051480     0.000000108051
      17        0.000000580067     0.000000311555     0.000000495269
      18        0.000000115648     0.000000267601     0.000000076755
      19       -0.000000088457    -0.000000126648    -0.000000136607
      20        0.000000047004    -0.000000098567     0.000000169836
      21        0.000000055905     0.000000275210     0.000001190866
      22        0.000000113358    -0.000000383860    -0.000000015837
      23       -0.000000434021     0.000000211244    -0.000000991394
      24       -0.000000457205     0.000000220547    -0.000000706059
      25       -0.000000071054    -0.000000168793     0.000000844318
      26        0.000000593465    -0.000000201000    -0.000000189107

  **** Optimization is complete! (in 40 steps) ****
    Final optimized geometry and variables:
    Molecular point group: c1

    Geometry (in Angstrom), charge = 0, multiplicity = 1:

    C           -2.660011261360     1.584632217559    -0.012161605073
    H           -1.940196695054     2.258636949671     0.455177538681
    H           -3.443407337660     1.379617609838     0.718690415426
    H           -3.113092392827     2.109407894634    -0.852901429637
    C            2.749895678536     1.583709026559     0.286834515179
    H            3.722564784269     1.186400101303    -0.006663392614
    H            2.688065932473     1.537483452098     1.374994946925
    H            2.712769843098     2.632509865711    -0.006781131493
    C           -1.979211680340     0.294574082246    -0.452617639502
    H           -1.212013889215     0.524763114954    -1.194443624948
    H           -2.702777997674    -0.358038038132    -0.949319241613
    C            1.623383619943     0.780281904020    -0.351118285709
    H            0.661763057826     1.207429642194    -0.062649424883
    H            1.682526945845     0.861605038304    -1.440096569488
    C           -1.362402566626    -0.455436846037     0.721893696551
    H           -2.156556719264    -0.697786861531     1.434475023783
    H           -0.672313218895     0.204287989395     1.256284865507
    C           -0.646345263139    -1.744000442415     0.325064938343
    H           -1.361990728763    -2.404181496688    -0.174468755657
    H           -0.326979416001    -2.264923976888     1.232418493222
    C            0.578238503994    -1.566056686473    -0.575576953764
    H            0.976533659838    -2.560796374554    -0.787268946255
    H            0.281174719425    -1.150190029220    -1.542237397808
    C            1.686311203941    -0.696128618274     0.032626566471
    H            1.662522760184    -0.788282005276     1.124129611383
    H            2.662162951414    -1.077189500594    -0.281018156166

*** Psi4 exiting successfully. Buy a developer a beer!
