                              Psi4 1.0.0 Driver

  ==> Input File <==

--------------------------------------------------------------------------
memory 60 Gb

molecule molecule_09_psi {
0 1
C           -0.583087471264    -3.608191926372    -0.831430876275
H           -1.493064902103    -3.012267010046    -0.888689797065
H           -0.878361056752    -4.655046790427    -0.764986835076
H           -0.036001008293    -3.473312472578    -1.766113862668
C            0.582961849635     3.608206643828    -0.831721730774
H            0.035779200083     3.473254475672    -1.766337847736
H            1.492973625039     3.012343891842    -0.889060193664
H            0.878171196393     4.655083967515    -0.765351409185
C            0.279698699772    -3.202326527962     0.358761485063
H            1.124357862881    -3.890019837595     0.440311437142
H           -0.296067022842    -3.307643462766     1.282439326501
C           -0.279661546645     3.202328716054     0.358584611871
H            0.296212931516     3.307676757417     1.282190790415
H           -1.124326531645     3.890002623767     0.440226102145
C            0.809289689091    -1.773481000121     0.261091616151
H            1.403009765652    -1.671083869311    -0.653268041968
H            1.490476354373    -1.584418086906     1.095767028141
C           -0.281099798395    -0.708257028475     0.270711352386
H           -0.912988103226    -0.847365533571     1.154456008037
H           -0.931719330438    -0.829318976727    -0.599331570359
C            0.281150729150     0.708249243517     0.270625480994
H            0.913109225757     0.847434360230     1.154307909604
H            0.931699772941     0.829233737775    -0.599479897122
C           -0.809241199942     1.773470294665     0.261001328476
H           -1.403010660920     1.671023080676    -0.653320485262
H           -1.490381714897     1.584442015775     1.095721238118
}

set globals {
  reference rhf
  g_convergence gau_verytight
  basis aug-cc-pvtz
  freeze_core true
  scf_type df
  mp_type df
}
optimize('mp2')
--------------------------------------------------------------------------

    Molecular point group: c1
  Charge       = 0
  Multiplicity = 1
  Basis Set: AUG-CC-PVTZ
  Basis Set:
  @DF-RHF Final Energy:  -313.54412859825931
    Total Energy =                       -313.5441285982594763
  Basis Set:
    Molecular point group: c1
  Basis Set: AUG-CC-PVTZ
  Basis Set:
  Basis Set:
	 Reference Energy          =    -313.5441285982593058 [Eh]
	 Singles Energy            =      -0.0000000000000003 [Eh]
	 Same-Spin Energy          =      -0.3154116749282133 [Eh]
	 Opposite-Spin Energy      =      -1.1241447692051449 [Eh]
	 Correlation Energy        =      -1.4395564441333584 [Eh]
	 Total Energy              =    -314.9836850423926649 [Eh]
	 SCS Total Energy          =    -314.9982395462815248 [Eh]
  Basis Set: AUG-CC-PVTZ
  Basis Set:
  @DF-RHF Final Energy:  -313.54412866556447
    Total Energy =                       -313.5441286655645285
  Basis Set:
  Basis Set: AUG-CC-PVTZ
  Basis Set:
  @DF-RHF Final Energy:  -313.54412867593737
    Total Energy =                       -313.5441286759372588
  @DF-RHF Final Energy:  -313.54412837131980
    Total Energy =                       -313.5441283713201415
  @DF-RHF Final Energy:  -313.54412843596765
    Total Energy =                       -313.5441284359676501
  @DF-RHF Final Energy:  -313.54412861264444
    Total Energy =                       -313.5441286126439309
  @DF-RHF Final Energy:  -313.54412848743578
    Total Energy =                       -313.5441284874358985
  @DF-RHF Final Energy:  -313.54412877499158
    Total Energy =                       -313.5441287749917478
  @DF-RHF Final Energy:  -313.54412851041633
    Total Energy =                       -313.5441285104166127
  @DF-RHF Final Energy:  -313.54412864454491
    Total Energy =                       -313.5441286445453670
  @DF-RHF Final Energy:  -313.54412854739559
    Total Energy =                       -313.5441285473955304
  @DF-RHF Final Energy:  -313.54412861839461
    Total Energy =                       -313.5441286183946090
  @DF-RHF Final Energy:  -313.54412869371515
    Total Energy =                       -313.5441286937155496
  @DF-RHF Final Energy:  -313.54412861815484
    Total Energy =                       -313.5441286181546161
  @DF-RHF Final Energy:  -313.54412857539984
    Total Energy =                       -313.5441285754000660
  @DF-RHF Final Energy:  -313.54412860706816
    Total Energy =                       -313.5441286070681599
  @DF-RHF Final Energy:  -313.54412860144231
    Total Energy =                       -313.5441286014422531
  @DF-RHF Final Energy:  -313.54412855496918
    Total Energy =                       -313.5441285549690633
  @DF-RHF Final Energy:  -313.54412856014756
    Total Energy =                       -313.5441285601480104
  @DF-RHF Final Energy:  -313.54412860481182
    Total Energy =                       -313.5441286048121583
  @DF-RHF Final Energy:  -313.54412858403248
    Total Energy =                       -313.5441285840325349
  @DF-RHF Final Energy:  -313.54412853602059
    Total Energy =                       -313.5441285360207644
	 Singles Energy            =      -0.0000000000000002 [Eh]
	 Same-Spin Energy          =      -0.3154116913345498 [Eh]
	 Opposite-Spin Energy      =      -1.1241448182573375 [Eh]
	 Correlation Energy        =      -1.4395565095918874 [Eh]
	 Total Energy              =    -314.9836850456125035 [Eh]
	 SCS Total Energy          =    -314.9982395483742721 [Eh]
  Charge       = 0
  Multiplicity = 1
  Basis Set: AUG-CC-PVTZ
  Basis Set:

    Orbital Energies (a.u.)
    -----------------------

    Doubly Occupied:

       1A    -11.212722     2A    -11.212722     3A    -11.210321
       4A    -11.210264     5A    -11.209488     6A    -11.208916
       7A    -11.206438     8A    -11.206438     9A     -1.093399
      10A     -1.062109    11A     -1.009276    12A     -0.945031
      13A     -0.886518    14A     -0.828545    15A     -0.773572
      16A     -0.771075    17A     -0.648165    18A     -0.621594
      19A     -0.618845    20A     -0.592321    21A     -0.581393
      22A     -0.563748    23A     -0.536069    24A     -0.527437
      25A     -0.516314    26A     -0.496435    27A     -0.489712
      28A     -0.477445    29A     -0.461074    30A     -0.459529
      31A     -0.452843    32A     -0.448483    33A     -0.428403

  @DF-RHF Final Energy:  -313.54412857406010

   => Energetics <=

    Nuclear Repulsion Energy =            385.1302989402473713
    One-Electron Energy =               -1185.4155617220467320
    Two-Electron Energy =                 486.7411342077392078
    DFT Exchange-Correlation Energy =       0.0000000000000000
    Empirical Dispersion Energy =           0.0000000000000000
    PCM Polarization Energy =               0.0000000000000000
    EFP Energy =                            0.0000000000000000
    Total Energy =                       -313.5441285740601529
  Basis Set:
    Molecular point group: c1
  Basis Set: AUG-CC-PVTZ
  Basis Set:
  Basis Set:
	 Reference Energy          =    -313.5441285740600961 [Eh]
	 Singles Energy            =      -0.0000000000000002 [Eh]
	 Same-Spin Energy          =      -0.3154116814375011 [Eh]
	 Opposite-Spin Energy      =      -1.1241447924988068 [Eh]
	 Correlation Energy        =      -1.4395564739363083 [Eh]
	 Total Energy              =    -314.9836850479964028 [Eh]

	 ================> DF-SCS-MP2 Energies <==================
	-----------------------------------------------------------
	 SCS Same-Spin Scale       =       0.3333333333333333 [-]
	 SCS Opposite-Spin Scale   =       1.2000000000000000 [-]
	 SCS Same-Spin Energy      =      -0.1051372271458337 [Eh]
	 SCS Opposite-Spin Energy  =      -1.3489737509985682 [Eh]
	 SCS Correlation Energy    =      -1.4541109781444022 [Eh]
	 SCS Total Energy          =    -314.9982395522044953 [Eh]
	-----------------------------------------------------------

  -Total Gradient:
     Atom            X                  Y                   Z
    ------   -----------------  -----------------  -----------------
       1        0.000000105185     0.000000113713     0.000000163556
       2       -0.000000197654     0.000000144206    -0.000000056246
       3       -0.000000051833    -0.000000178659     0.000000033458
       4        0.000000080255     0.000000018310    -0.000000171412
       5       -0.000000101601    -0.000000013953     0.000000137260
       6       -0.000000049160    -0.000000021301    -0.000000147291
       7        0.000000096686    -0.000000025459    -0.000000020012
       8        0.000000004148     0.000000065427     0.000000014575
       9        0.000000031404     0.000000153666    -0.000000344013
      10        0.000000169909    -0.000000123728     0.000000013140
      11       -0.000000172344    -0.000000044502     0.000000262679
      12        0.000000237956    -0.000000048246    -0.000000201914
      13        0.000000109864     0.000000058827     0.000000167995
      14       -0.000000126993     0.000000109016     0.000000002126
      15       -0.000000376467     0.000000073299     0.000000129849
      16        0.000000199132    -0.000000046220    -0.000000262011
      17        0.000000233244    -0.000000008536     0.000000261515
      18        0.000000581406    -0.000000087995    -0.000000106913
      19       -0.000000333638    -0.000000115639     0.000000368799
      20       -0.000000343149    -0.000000155237    -0.000000320815
      21       -0.000000717181    -0.000000065360     0.000000017654
      22        0.000000377202     0.000000093693     0.000000426119
      23        0.000000340438     0.000000090142    -0.000000350597
      24        0.000000547178    -0.000000012274     0.000000086649
      25       -0.000000350522    -0.000000001793    -0.000000435505
      26       -0.000000293468     0.000000028601     0.000000331354

  **** Optimization is complete! (in 23 steps) ****
    Final optimized geometry and variables:
    Molecular point group: c1

    Geometry (in Angstrom), charge = 0, multiplicity = 1:

    C           -0.583069420008    -3.608224731823    -0.831430489960
    H           -1.493067718652    -3.012333116453    -0.888693858199
    H           -0.878306313585    -4.655089018561    -0.764974653710
    H           -0.035989548306    -3.473336563313    -1.766115909887
    C            0.582979994038     3.608171907685    -0.831720980194
    H            0.035792676748     3.473226838173    -1.766335472560
    H            1.492971145028     3.012275715647    -0.889052144068
    H            0.878226001106     4.655039968097    -0.765363658716
    C            0.279704707238    -3.202316406289     0.358755951166
    H            1.124373157368    -3.889995611694     0.440322275449
    H           -0.296061010140    -3.307623056634     1.282434762992
    C           -0.279658039314     3.202339077679     0.358589784078
    H            0.296214950227     3.307698902958     1.282195772893
    H           -1.124313417146     3.890027806875     0.440212079245
    C            0.809279907476    -1.773465902316     0.261055855487
    H            1.402973862656    -1.671070558261    -0.653320724570
    H            1.490488644175    -1.584391592190     1.095710215438
    C           -0.281113663686    -0.708246670014     0.270703127291
    H           -0.912990218979    -0.847369649127     1.154454184480
    H           -0.931743427048    -0.829297329727    -0.599333534682
    C            0.281135577726     0.708260726030     0.270632179995
    H            0.913106462626     0.847432944528     1.154308405268
    H            0.931674373164     0.829258521937    -0.599480181951
    C           -0.809253119415     1.773485458999     0.261037805794
    H           -1.403049412921     1.671036278254    -0.653266737611
    H           -1.490370981173     1.584468322427     1.095779487811

*** Psi4 exiting successfully. Buy a developer a beer!
