                              Psi4 1.0.0 Driver

  ==> Input File <==

--------------------------------------------------------------------------
memory 30 Gb

molecule molecule_21_psi {
0 1
symmetry c1
    C            0.103136162663     3.154876709479    -1.295660067108
    H            0.936779984451     3.833059330288    -1.462700885882
    H           -0.792948764207     3.753396270975    -1.141477392240
    H           -0.041149322272     2.570354133077    -2.202826059052
    C           -0.103130920518    -3.154890831976    -1.295622902488
    H            0.041130792802    -2.570370932014    -2.202795288803
    H           -0.936767126866    -3.833088389316    -1.462646681306
    H            0.792966630473    -3.753395790487    -1.141450725296
    C            0.350547877011     2.243564237386    -0.107927519225
    H            0.505230112274     2.840981464663     0.793076162882
    H            1.270321412558     1.681457676874    -0.268948291372
    C           -0.350540555313    -2.243575683563    -0.107891693442
    H           -1.270324132499    -1.681480381502    -0.268905143671
    H           -0.505206119610    -2.840991727494     0.793117589693
    C           -0.802041475656     1.284639953034     0.127325287053
    H           -0.923740787244     0.651586791086    -0.754370138379
    H           -1.726081609226     1.859529594425     0.217967446222
    C           -0.634280628876     0.421987293610     1.368242507159
    H           -1.502846321495    -0.228457752253     1.474883547336
    H           -0.625283287323     1.067901517345     2.248467607099
    C            0.634270321050    -0.421966797571     1.368251192938
    H            1.502834474194     0.228480681283     1.474888357106
    H            0.625269737616    -1.067870478099     2.248484253491
    C            0.802039018071    -1.284633836161     0.127345611540
    H            0.923731994626    -0.651589959978    -0.754358553046
    H            1.726084731770    -1.859514482414     0.217994535705
}

set globals {
  reference rhf
  g_convergence gau_verytight
  basis aug-cc-pvtz
  freeze_core true
  scf_type df
  mp_type df
}
optimize('mp2')
--------------------------------------------------------------------------

    Molecular point group: c1
  Charge       = 0
  Multiplicity = 1
  Basis Set: AUG-CC-PVTZ
  Basis Set:
  @DF-RHF Final Energy:  -313.54099212913263
    Total Energy =                       -313.5409921291327464
  Basis Set:
    Molecular point group: c1
  Basis Set: AUG-CC-PVTZ
  Basis Set:
  Basis Set:
	 Reference Energy          =    -313.5409921291326327 [Eh]
	 Singles Energy            =      -0.0000000000000001 [Eh]
	 Same-Spin Energy          =      -0.3174089919550847 [Eh]
	 Opposite-Spin Energy      =      -1.1257447462766887 [Eh]
	 Correlation Energy        =      -1.4431537382317734 [Eh]
	 Total Energy              =    -314.9841458673644183 [Eh]
	 SCS Total Energy          =    -314.9976888219830471 [Eh]
  Basis Set: AUG-CC-PVTZ
  Basis Set:
  @DF-RHF Final Energy:  -313.54136848533909
    Total Energy =                       -313.5413684853392624
  Basis Set:
  Basis Set: AUG-CC-PVTZ
  Basis Set:
  @DF-RHF Final Energy:  -313.54132493713666
    Total Energy =                       -313.5413249371366078
  @DF-RHF Final Energy:  -313.54147097098871
    Total Energy =                       -313.5414709709889962
  @DF-RHF Final Energy:  -313.54156151273105
    Total Energy =                       -313.5415615127308797
  @DF-RHF Final Energy:  -313.54155588903473
    Total Energy =                       -313.5415558890348962
  @DF-RHF Final Energy:  -313.54155579715956
    Total Energy =                       -313.5415557971596172
  @DF-RHF Final Energy:  -313.54155524850273
    Total Energy =                       -313.5415552485027320
  @DF-RHF Final Energy:  -313.54155544461986
    Total Energy =                       -313.5415554446198030
  @DF-RHF Final Energy:  -313.54155534442748
    Total Energy =                       -313.5415553444274792
  @DF-RHF Final Energy:  -313.54155513129496
    Total Energy =                       -313.5415551312947287
  @DF-RHF Final Energy:  -313.54155504830294
    Total Energy =                       -313.5415550483024845
  @DF-RHF Final Energy:  -313.54155526637823
    Total Energy =                       -313.5415552663781114
  @DF-RHF Final Energy:  -313.54155507923656
    Total Energy =                       -313.5415550792366730
	 Singles Energy            =      -0.0000000000000000 [Eh]
	 Same-Spin Energy          =      -0.3168909895756284 [Eh]
	 Opposite-Spin Energy      =      -1.1259709357582000 [Eh]
	 Correlation Energy        =      -1.4428619253338284 [Eh]
	 Total Energy              =    -314.9844170045703891 [Eh]
	 SCS Total Energy          =    -314.9983505320049630 [Eh]
  Charge       = 0
  Multiplicity = 1
  Basis Set: AUG-CC-PVTZ
  Basis Set:

    Orbital Energies (a.u.)
    -----------------------

    Doubly Occupied:

       1A    -11.212242     2A    -11.212242     3A    -11.210460
       4A    -11.210157     5A    -11.209775     6A    -11.209474
       7A    -11.207344     8A    -11.207344     9A     -1.096590
      10A     -1.058276    11A     -1.008993    12A     -0.948418
      13A     -0.881793    14A     -0.833405    15A     -0.794069
      16A     -0.747419    17A     -0.655801    18A     -0.621318
      19A     -0.613687    20A     -0.592259    21A     -0.574219
      22A     -0.570386    23A     -0.544241    24A     -0.524688
      25A     -0.515966    26A     -0.499129    27A     -0.494737
      28A     -0.472078    29A     -0.469258    30A     -0.462339
      31A     -0.443824    32A     -0.439905    33A     -0.434321

  @DF-RHF Final Energy:  -313.54155525788389

   => Energetics <=

    Nuclear Repulsion Energy =            399.3260570349582963
    One-Electron Energy =               -1213.7829130086797704
    Two-Electron Energy =                 500.9153007158373612
    DFT Exchange-Correlation Energy =       0.0000000000000000
    Empirical Dispersion Energy =           0.0000000000000000
    PCM Polarization Energy =               0.0000000000000000
    EFP Energy =                            0.0000000000000000
    Total Energy =                       -313.5415552578841698
  Basis Set:
    Molecular point group: c1
  Basis Set: AUG-CC-PVTZ
  Basis Set:
  Basis Set:
	 Reference Energy          =    -313.5415552578838856 [Eh]
	 Singles Energy            =      -0.0000000000000000 [Eh]
	 Same-Spin Energy          =      -0.3168909952905473 [Eh]
	 Opposite-Spin Energy      =      -1.1259707454630972 [Eh]
	 Correlation Energy        =      -1.4428617407536444 [Eh]
	 Total Energy              =    -314.9844169986375277 [Eh]

	 ================> DF-SCS-MP2 Energies <==================
	-----------------------------------------------------------
	 SCS Same-Spin Scale       =       0.3333333333333333 [-]
	 SCS Opposite-Spin Scale   =       1.2000000000000000 [-]
	 SCS Same-Spin Energy      =      -0.1056303317635157 [Eh]
	 SCS Opposite-Spin Energy  =      -1.3511648945557166 [Eh]
	 SCS Correlation Energy    =      -1.4567952263192323 [Eh]
	 SCS Total Energy          =    -314.9983504842031152 [Eh]
	-----------------------------------------------------------

  -Total Gradient:
     Atom            X                  Y                   Z
    ------   -----------------  -----------------  -----------------
       1       -0.000000183086     0.000000171607    -0.000000024603
       2       -0.000000103050    -0.000000049253     0.000000007280
       3        0.000000149671    -0.000000097953    -0.000000064247
       4        0.000000021021     0.000000057014     0.000000117044
       5       -0.000000000709    -0.000000122318    -0.000000081799
       6       -0.000000020447    -0.000000076009     0.000000139937
       7        0.000000130044     0.000000069136     0.000000029570
       8       -0.000000095342     0.000000063359    -0.000000039542
       9        0.000000175526    -0.000000310222    -0.000000059473
      10       -0.000000106304    -0.000000185071    -0.000000194778
      11       -0.000000127953     0.000000080004     0.000000077834
      12       -0.000000024902     0.000000238489    -0.000000036689
      13        0.000000090951    -0.000000111163     0.000000088452
      14        0.000000082899     0.000000234614    -0.000000219491
      15       -0.000000181092     0.000000280769    -0.000000020573
      16        0.000000033916     0.000000235049     0.000000168983
      17        0.000000168830    -0.000000153229    -0.000000072857
      18       -0.000000117015    -0.000000036240     0.000000162655
      19        0.000000254950     0.000000207275    -0.000000030379
      20       -0.000000063609    -0.000000180764    -0.000000118247
      21        0.000000215560    -0.000000071667     0.000000125645
      22       -0.000000261367    -0.000000242626    -0.000000053254
      23        0.000000084045     0.000000214908    -0.000000179670
      24        0.000000025559    -0.000000082801     0.000000136550
      25       -0.000000063260    -0.000000249210     0.000000209958
      26       -0.000000084836     0.000000116309    -0.000000068304

  **** Optimization is complete! (in 15 steps) ****
    Final optimized geometry and variables:
    Molecular point group: c1

    Geometry (in Angstrom), charge = 0, multiplicity = 1:

    C            0.128109198974     3.185720408938    -1.296408317536
    H            0.961181152438     3.870169027442    -1.454658456727
    H           -0.774304389155     3.781439789704    -1.153552229652
    H           -0.002353967766     2.600176174661    -2.207595664184
    C           -0.128079367031    -3.185714241911    -1.296422573079
    H            0.002404094680    -2.600165406471    -2.207604188267
    H           -0.961148029653    -3.870162116160    -1.454694575199
    H            0.774331149045    -3.781434670988    -1.153549456765
    C            0.368161807299     2.272446655965    -0.100404275556
    H            0.513839233993     2.872851503793     0.802334508847
    H            1.293201708602     1.711882430522    -0.252204103937
    C           -0.368158678171    -2.272446694737    -0.100419180890
    H           -1.293195170632    -1.711881165570    -0.252237289285
    H           -0.513857120966    -2.872856135674     0.802313442751
    C           -0.790272252835     1.307627834448     0.123868617393
    H           -0.908836142133     0.679588573822    -0.764533471936
    H           -1.715953462771     1.883862678163     0.212835176916
    C           -0.631575792196     0.431998513820     1.365251149272
    H           -1.511111981156    -0.207978881137     1.467221490009
    H           -0.617140470985     1.073619210851     2.251034807591
    C            0.631542498542    -0.432003829157     1.365266741331
    H            1.511076039404     0.207972897509     1.467261435602
    H            0.617084018152    -1.073626623451     2.251048214989
    C            0.790270625277    -1.307629098707     0.123886031491
    H            0.908857568425    -0.679586815125    -0.764510653092
    H            1.715949109542    -1.883865097859     0.212873823223

*** Psi4 exiting successfully. Buy a developer a beer!
