                              Psi4 1.0.0 Driver

  ==> Input File <==

--------------------------------------------------------------------------
memory 60 Gb

molecule molecule_13_psi {
0 1
C           -2.946266966301    -1.130162707508     0.497741700867
H           -3.412665162721    -2.093021802061     0.290707992900
H           -3.666834913043    -0.518682905224     1.043719305288
H           -2.097087209373    -1.310056243211     1.157117514271
C            3.367194922523    -0.322618137666    -0.861620963071
H            2.642495747888    -0.548996446802    -1.642738984894
H            4.244075941883    -0.946009540449    -1.034723863815
H            3.669068606017     0.719727331277    -0.977948998021
C           -2.516603808280    -0.437441076647    -0.790547071382
H           -3.370680386297    -0.372460172131    -1.468232730052
H           -1.768094129479    -1.046284916282    -1.302238391357
C            2.786583967006    -0.561371389057     0.528149811263
H            2.454598860924    -1.599807589615     0.613720041491
H            3.572931837455    -0.425221559900     1.273935982371
C           -1.968546164308     0.970644374586    -0.560175342636
H           -2.772192083479     1.601739700320    -0.169349839532
H           -1.674674399900     1.400735999040    -1.521971192726
C           -0.776545239506     1.035385614094     0.393642534309
H           -1.084434727065     0.735047131169     1.398934038424
H           -0.447620862469     2.075381661809     0.475868590628
C            0.406334402999     0.179518617091    -0.044385836210
H            0.124056889366    -0.877905518671    -0.043819039574
H            0.664122535061     0.432879337734    -1.076684606231
C            1.619070246618     0.364467951024     0.861011789531
H            1.955222711336     1.404947276440     0.803164397768
H            1.310373071180     0.196079528933     1.896959337083
}

set globals {
  reference rhf
  g_convergence gau_verytight
  basis aug-cc-pvtz
  freeze_core true
  scf_type df
  mp_type df
}
optimize('mp2')
--------------------------------------------------------------------------

    Molecular point group: c1
  Charge       = 0
  Multiplicity = 1
  Basis Set: AUG-CC-PVTZ
  Basis Set:
  @DF-RHF Final Energy:  -313.54194221151698
    Total Energy =                       -313.5419422115171528
  Basis Set:
    Molecular point group: c1
  Basis Set: AUG-CC-PVTZ
  Basis Set:
  Basis Set:
	 Reference Energy          =    -313.5419422115169823 [Eh]
	 Singles Energy            =      -0.0000000000000000 [Eh]
	 Same-Spin Energy          =      -0.3163533130169486 [Eh]
	 Opposite-Spin Energy      =      -1.1253517620182076 [Eh]
	 Correlation Energy        =      -1.4417050750351561 [Eh]
	 Total Energy              =    -314.9836472865521273 [Eh]
	 SCS Total Energy          =    -314.9978154302777966 [Eh]
  Basis Set: AUG-CC-PVTZ
  Basis Set:
  @DF-RHF Final Energy:  -313.54194228820916
    Total Energy =                       -313.5419422882094977
  Basis Set:
  Basis Set: AUG-CC-PVTZ
  Basis Set:
  @DF-RHF Final Energy:  -313.54194245873157
    Total Energy =                       -313.5419424587313983
  @DF-RHF Final Energy:  -313.54194224766127
    Total Energy =                       -313.5419422476617228
  @DF-RHF Final Energy:  -313.54194228712953
    Total Energy =                       -313.5419422871295296
  @DF-RHF Final Energy:  -313.54194223887748
    Total Energy =                       -313.5419422388775956
  @DF-RHF Final Energy:  -313.54194225060530
    Total Energy =                       -313.5419422506057572
  @DF-RHF Final Energy:  -313.54194217494285
    Total Energy =                       -313.5419421749430740
	 Singles Energy            =      -0.0000000000000000 [Eh]
	 Same-Spin Energy          =      -0.3163532956532973 [Eh]
	 Opposite-Spin Energy      =      -1.1253518129333839 [Eh]
	 Correlation Energy        =      -1.4417051085866812 [Eh]
	 Total Energy              =    -314.9836472835295353 [Eh]
	 SCS Total Energy          =    -314.9978154490140128 [Eh]
  Charge       = 0
  Multiplicity = 1
  Basis Set: AUG-CC-PVTZ
  Basis Set:

    Orbital Energies (a.u.)
    -----------------------

    Doubly Occupied:

       1A    -11.212897     2A    -11.212003     3A    -11.210567
       4A    -11.210464     5A    -11.209484     6A    -11.208873
       7A    -11.206942     8A    -11.206667     9A     -1.094793
      10A     -1.061284    11A     -1.006198    12A     -0.946541
      13A     -0.886904    14A     -0.836839    15A     -0.778165
      16A     -0.756546    17A     -0.647737    18A     -0.628437
      19A     -0.610596    20A     -0.606216    21A     -0.572916
      22A     -0.553820    23A     -0.547457    24A     -0.529048
      25A     -0.513636    26A     -0.506196    27A     -0.488055
      28A     -0.474252    29A     -0.463518    30A     -0.459707
      31A     -0.449727    32A     -0.442170    33A     -0.431361

  @DF-RHF Final Energy:  -313.54194218647712

   => Energetics <=

    Nuclear Repulsion Energy =            394.1897451486104842
    One-Electron Energy =               -1203.5233427631424092
    Two-Electron Energy =                 495.7916554280548667
    DFT Exchange-Correlation Energy =       0.0000000000000000
    Empirical Dispersion Energy =           0.0000000000000000
    PCM Polarization Energy =               0.0000000000000000
    EFP Energy =                            0.0000000000000000
    Total Energy =                       -313.5419421864771152
  Basis Set:
    Molecular point group: c1
  Basis Set: AUG-CC-PVTZ
  Basis Set:
  Basis Set:
	 Reference Energy          =    -313.5419421864771152 [Eh]
	 Singles Energy            =      -0.0000000000000001 [Eh]
	 Same-Spin Energy          =      -0.3163532977872088 [Eh]
	 Opposite-Spin Energy      =      -1.1253518009159318 [Eh]
	 Correlation Energy        =      -1.4417050987031408 [Eh]
	 Total Energy              =    -314.9836472851802682 [Eh]

	 ================> DF-SCS-MP2 Energies <==================
	-----------------------------------------------------------
	 SCS Same-Spin Scale       =       0.3333333333333333 [-]
	 SCS Opposite-Spin Scale   =       1.2000000000000000 [-]
	 SCS Same-Spin Energy      =      -0.1054510992624029 [Eh]
	 SCS Opposite-Spin Energy  =      -1.3504221610991181 [Eh]
	 SCS Correlation Energy    =      -1.4558732603615212 [Eh]
	 SCS Total Energy          =    -314.9978154468386151 [Eh]
	-----------------------------------------------------------

  -Total Gradient:
     Atom            X                  Y                   Z
    ------   -----------------  -----------------  -----------------
       1        0.000000033744     0.000000121346    -0.000000245712
       2       -0.000000116707    -0.000000273556    -0.000000100852
       3       -0.000000178919     0.000000130576     0.000000142148
       4        0.000000245192    -0.000000005614     0.000000220335
       5       -0.000000085278    -0.000000099813     0.000000488607
       6       -0.000000308734    -0.000000085205    -0.000000383451
       7        0.000000336390    -0.000000258825    -0.000000012451
       8        0.000000150844     0.000000461723    -0.000000114086
       9       -0.000000013670     0.000000128641     0.000000319098
      10       -0.000000159334     0.000000027820    -0.000000087141
      11        0.000000223075    -0.000000150249    -0.000000151388
      12       -0.000000076145     0.000000440378    -0.000000552754
      13       -0.000000166033    -0.000000673986     0.000000051616
      14        0.000000354505     0.000000079001     0.000000313092
      15        0.000000166276    -0.000000082884    -0.000000051353
      16       -0.000000078099     0.000000073874     0.000000044669
      17        0.000000011744     0.000000029086    -0.000000113267
      18        0.000000098702    -0.000000008319    -0.000000183485
      19       -0.000000084833    -0.000000076481     0.000000174019
      20       -0.000000010532     0.000000021575     0.000000007149
      21       -0.000000145920     0.000000345449     0.000000324470
      22       -0.000000334828    -0.000000329534    -0.000000100226
      23        0.000000071560     0.000000095334    -0.000000346241
      24        0.000000008010    -0.000000319767    -0.000000150299
      25        0.000000150250     0.000000485988     0.000000040538
      26       -0.000000091260    -0.000000076560     0.000000466963

  **** Optimization is complete! (in 9 steps) ****
    Final optimized geometry and variables:
    Molecular point group: c1

    Geometry (in Angstrom), charge = 0, multiplicity = 1:

    C           -2.946270019907    -1.130162353872     0.497738276068
    H           -3.412662390718    -2.093023970542     0.290701975827
    H           -3.666844067981    -0.518685811258     1.043711645350
    H           -2.097092674081    -1.310051144595     1.157118845632
    C            3.367193209054    -0.322615978522    -0.861624275135
    H            2.642493369363    -0.548999722601    -1.642740410882
    H            4.244077527425    -0.946002650300    -1.034728203735
    H            3.669060664796     0.719731264382    -0.977954823840
    C           -2.516603841819    -0.437439491648    -0.790548769634
    H           -3.370679611932    -0.372456255702    -1.468235759123
    H           -1.768093757281    -1.046284050754    -1.302240314024
    C            2.786586381615    -0.561370335814     0.528148115883
    H            2.454602494795    -1.599807037894     0.613719100708
    H            3.572936451503    -0.425219976427     1.273931922643
    C           -1.968544601089     0.970645210410    -0.560175692554
    H           -2.772190196784     1.601741933098    -0.169350555166
    H           -1.674671536832     1.400736713736    -1.521971975277
    C           -0.776544486670     1.035385635828     0.393644320872
    H           -1.084436730474     0.735052031132     1.398936927635
    H           -0.447617215135     2.075381088687     0.475866362618
    C            0.406333040103     0.179512781650    -0.044378541188
    H            0.124053766875    -0.877911386016    -0.043799869418
    H            0.664119595484     0.432863356688    -1.076680637416
    C            1.619072053608     0.364467751626     0.861013878388
    H            1.955222399273     1.404947603548     0.803164186876
    H            1.310379784112     0.196079599837     1.896962919578

*** Psi4 exiting successfully. Buy a developer a beer!
