                              Psi4 1.0.0 Driver

  ==> Input File <==

--------------------------------------------------------------------------
memory 60 Gb

molecule molecule_78_psi {
0 1
C           -4.039254839129    -0.267972426639     0.478882907519
H           -4.350748077490    -0.773005552864    -0.436407337881
H           -4.454869743166     0.740240906749     0.458827663321
H           -4.483198791474    -0.797764967790     1.321328555944
C            4.039255624325     0.267970521989     0.478869465941
H            4.483201112402     0.797761393238     1.321314954129
H            4.350748888202     0.773003579285    -0.436420209263
H            4.454868098856    -0.740243289887     0.458813268051
C           -2.519257964514    -0.224152434754     0.578719456095
H           -2.129740479706    -1.242568094633     0.632008744897
H           -2.222918477778     0.272113494492     1.507528129993
C            2.519258868324     0.224153361985     0.578706946084
H            2.222919117876    -0.272111709812     1.507515468171
H            2.129743723231     1.242569433872     0.631995228468
C           -1.888694275107     0.510136622055    -0.599357245715
H           -2.347958965582     1.499767582746    -0.680794509391
H           -2.131961902578    -0.021797548061    -1.525108859822
C           -0.373920232491     0.665244022192    -0.489416321069
H           -0.141050155682     1.223866629170     0.421118178757
H           -0.011235145905     1.269377152701    -1.327036758182
C            0.373919404824    -0.665243890791    -0.489422164801
H            0.141054285772    -1.223872475699     0.421109664555
H            0.011230630651    -1.269371957585    -1.327044285237
C            1.888693374437    -0.510135617189    -0.599369011699
H            2.347958387565    -1.499765655498    -0.680808560990
H            2.131957963115     0.021799188198    -1.525120306494
}

set globals {
  reference rhf
  g_convergence gau_verytight
  basis aug-cc-pvtz
  freeze_core true
  scf_type df
  mp_type df
}
optimize('mp2')
--------------------------------------------------------------------------

    Molecular point group: c1
  Charge       = 0
  Multiplicity = 1
  Basis Set: AUG-CC-PVTZ
  Basis Set:
  @DF-RHF Final Energy:  -313.54392964354327
    Total Energy =                       -313.5439296435433789
  Basis Set:
    Molecular point group: c1
  Basis Set: AUG-CC-PVTZ
  Basis Set:
  Basis Set:
	 Reference Energy          =    -313.5439296435432652 [Eh]
	 Singles Energy            =      -0.0000000000000004 [Eh]
	 Same-Spin Energy          =      -0.3155614719772142 [Eh]
	 Opposite-Spin Energy      =      -1.1243522019656660 [Eh]
	 Correlation Energy        =      -1.4399136739428806 [Eh]
	 Total Energy              =    -314.9838433174861621 [Eh]
	 SCS Total Energy          =    -314.9983394432277919 [Eh]
  Basis Set: AUG-CC-PVTZ
  Basis Set:
  @DF-RHF Final Energy:  -313.54392949179328
    Total Energy =                       -313.5439294917932784
  Basis Set:
  Basis Set: AUG-CC-PVTZ
  Basis Set:
  @DF-RHF Final Energy:  -313.54392960061506
    Total Energy =                       -313.5439296006150016
  @DF-RHF Final Energy:  -313.54392951850008
    Total Energy =                       -313.5439295184999651
	 Singles Energy            =      -0.0000000000000002 [Eh]
	 Same-Spin Energy          =      -0.3155614628052398 [Eh]
	 Opposite-Spin Energy      =      -1.1243523389724146 [Eh]
	 Correlation Energy        =      -1.4399138017776545 [Eh]
	 Total Energy              =    -314.9838433202777424 [Eh]
	 SCS Total Energy          =    -314.9983394795353888 [Eh]
  Charge       = 0
  Multiplicity = 1
  Basis Set: AUG-CC-PVTZ
  Basis Set:

    Orbital Energies (a.u.)
    -----------------------

    Doubly Occupied:

       1A    -11.211854     2A    -11.211854     3A    -11.210521
       4A    -11.210354     5A    -11.209924     6A    -11.209469
       7A    -11.206856     8A    -11.206856     9A     -1.094282
      10A     -1.060935    11A     -1.009518    12A     -0.950122
      13A     -0.873459    14A     -0.831389    15A     -0.793756
      16A     -0.759074    17A     -0.644034    18A     -0.629178
      19A     -0.606974    20A     -0.594865    21A     -0.573879
      22A     -0.564151    23A     -0.550974    24A     -0.530531
      25A     -0.510866    26A     -0.494762    27A     -0.493011
      28A     -0.474649    29A     -0.467365    30A     -0.461531
      31A     -0.444427    32A     -0.439265    33A     -0.437409

  @DF-RHF Final Energy:  -313.54392957394447

   => Energetics <=

    Nuclear Repulsion Energy =            386.6630971818020157
    One-Electron Energy =               -1188.4778615089064715
    Two-Electron Energy =                 488.2708347531603295
    DFT Exchange-Correlation Energy =       0.0000000000000000
    Empirical Dispersion Energy =           0.0000000000000000
    PCM Polarization Energy =               0.0000000000000000
    EFP Energy =                            0.0000000000000000
    Total Energy =                       -313.5439295739441832
  Basis Set:
    Molecular point group: c1
  Basis Set: AUG-CC-PVTZ
  Basis Set:
  Basis Set:
	 Reference Energy          =    -313.5439295739444674 [Eh]
	 Singles Energy            =      -0.0000000000000001 [Eh]
	 Same-Spin Energy          =      -0.3155614677067811 [Eh]
	 Opposite-Spin Energy      =      -1.1243522758999309 [Eh]
	 Correlation Energy        =      -1.4399137436067120 [Eh]
	 Total Energy              =    -314.9838433175511909 [Eh]

	 ================> DF-SCS-MP2 Energies <==================
	-----------------------------------------------------------
	 SCS Same-Spin Scale       =       0.3333333333333333 [-]
	 SCS Opposite-Spin Scale   =       1.2000000000000000 [-]
	 SCS Same-Spin Energy      =      -0.1051871559022604 [Eh]
	 SCS Opposite-Spin Energy  =      -1.3492227310799170 [Eh]
	 SCS Correlation Energy    =      -1.4544098869821773 [Eh]
	 SCS Total Energy          =    -314.9983394609266725 [Eh]
	-----------------------------------------------------------

  -Total Gradient:
     Atom            X                  Y                   Z
    ------   -----------------  -----------------  -----------------
       1        0.000000236564     0.000000015318    -0.000000030666
       2       -0.000000096190    -0.000000108623    -0.000000204075
       3       -0.000000111012     0.000000212806    -0.000000012729
       4       -0.000000085616    -0.000000119546     0.000000179751
       5       -0.000000506689     0.000000011706     0.000000066097
       6        0.000000165155     0.000000217523     0.000000321711
       7        0.000000189210     0.000000217156    -0.000000433923
       8        0.000000236897    -0.000000446253    -0.000000024169
       9       -0.000000146824     0.000000197640    -0.000000358605
      10        0.000000173877    -0.000000434050     0.000000084580
      11        0.000000068310     0.000000177850     0.000000449918
      12        0.000000433787    -0.000000308438    -0.000000583478
      13       -0.000000124413    -0.000000228264     0.000000635901
      14       -0.000000249342     0.000000589284     0.000000143648
      15        0.000000107984    -0.000000108894     0.000000414990
      16       -0.000000171671     0.000000346571     0.000000001266
      17       -0.000000150805    -0.000000190256    -0.000000433589
      18       -0.000000268941    -0.000000690575    -0.000000133276
      19        0.000000177622     0.000000408643     0.000000500282
      20        0.000000152694     0.000000296664    -0.000000504950
      21        0.000000466901     0.000000677824    -0.000000098343
      22       -0.000000250315    -0.000000428832     0.000000490779
      23       -0.000000142502    -0.000000271932    -0.000000434404
      24       -0.000000463162     0.000000162393     0.000000588223
      25        0.000000214854    -0.000000479391    -0.000000004721
      26        0.000000143628     0.000000283676    -0.000000620218

  **** Optimization is complete! (in 5 steps) ****
    Final optimized geometry and variables:
    Molecular point group: c1

    Geometry (in Angstrom), charge = 0, multiplicity = 1:

    C           -4.039255764847    -0.267974767408     0.478876400642
    H           -4.350746930005    -0.773003940652    -0.436416574082
    H           -4.454870642112     0.740238547117     0.458825300597
    H           -4.483200584911    -0.797771458600     1.321319040740
    C            4.039258246798     0.267972970367     0.478861598845
    H            4.483207604486     0.797766667860     1.321303806030
    H            4.350744210475     0.773005768778    -0.436431279258
    H            4.454873612205    -0.740240142138     0.458804309174
    C           -2.519258877225    -0.224154560957     0.578715497875
    H           -2.129741223477    -1.242570761101     0.631998219912
    H           -2.222921059391     0.272106504932     1.507527683700
    C            2.519262061749     0.224151666880     0.578708945843
    H            2.222929573187    -0.272113720289     1.507520404697
    H            2.129744376724     1.242567370640     0.631998695078
    C           -1.888694634092     0.510142234645    -0.599356758365
    H           -2.347958230092     1.499774346434    -0.680786479383
    H           -2.131962855473    -0.021785198677    -1.525112143500
    C           -0.373919508720     0.665246114293    -0.489414021291
    H           -0.141049398665     1.223873002534     0.421118152068
    H           -0.011231576345     1.269373950748    -1.327037304699
    C            0.373916909922    -0.665244034257    -0.489413222245
    H            0.141051085994    -1.223867421049     0.421122233026
    H            0.011225468814    -1.269374912273    -1.327032870853
    C            1.888691357352    -0.510139581696    -0.599363143968
    H            2.347954581192    -1.499771358406    -0.680799847001
    H            2.131954476677     0.021792255654    -1.525117379141

*** Psi4 exiting successfully. Buy a developer a beer!
