                              Psi4 1.0.0 Driver

  ==> Input File <==

--------------------------------------------------------------------------
memory 60 Gb

molecule molecule_59_psi {
0 1
C           -1.313560427615    -1.883624773865    -0.520239469356
H           -1.122753738180    -2.879214363998    -0.118383238169
H           -0.359126491610    -1.461948517212    -0.830173040272
H           -1.928768395208    -1.997785406639    -1.413991532909
C            3.369240938210    -0.611947172450     0.426472127915
H            4.262920556959    -0.868605844174    -0.141823774822
H            2.954006260839    -1.534747809162     0.833769095853
H            3.673642461177     0.013799751682     1.266356365928
C           -2.031776117937    -1.006194598083     0.502325164561
H           -1.447943516735    -0.939871280751     1.424274293579
H           -2.965216430951    -1.504535906936     0.773326110341
C            2.339406936449     0.106617394050    -0.436366257288
H            2.775838395101     1.017277524085    -0.855885635314
H            2.066117060760    -0.524059315628    -1.287300496621
C           -2.358454416143     0.406045523896     0.001493530884
H           -3.258496423848     0.758101682064     0.511662305229
H           -2.613783898429     0.352705399813    -1.062091327009
C           -1.278691690638     1.472896082733     0.199940962338
H           -1.094071108795     1.598088383990     1.271967665073
H           -1.693505631972     2.421869286330    -0.148313487048
C            0.058231229916     1.221291363534    -0.507608163283
H           -0.118259321745     0.684454926167    -1.444766602789
H            0.505005910007     2.178406347667    -0.790273353173
C            1.079351796557     0.466543920137     0.339232431901
H            1.347888775841     1.087587952124     1.200020625444
H            0.638831796186    -0.445064906408     0.749111274565
}

set globals {
  reference rhf
  g_convergence gau_verytight
  basis aug-cc-pvtz
  freeze_core true
  scf_type df
  mp_type df
}
optimize('mp2')
--------------------------------------------------------------------------

    Molecular point group: c1
  Charge       = 0
  Multiplicity = 1
  Basis Set: AUG-CC-PVTZ
  Basis Set:
  @DF-RHF Final Energy:  -313.53509947311426
    Total Energy =                       -313.5350994731144283
  Basis Set:
    Molecular point group: c1
  Basis Set: AUG-CC-PVTZ
  Basis Set:
  Basis Set:
	 Reference Energy          =    -313.5350994731142578 [Eh]
	 Singles Energy            =      -0.0000000000000001 [Eh]
	 Same-Spin Energy          =      -0.3170129594365586 [Eh]
	 Opposite-Spin Energy      =      -1.1266757447717568 [Eh]
	 Correlation Energy        =      -1.4436887042083153 [Eh]
	 Total Energy              =    -314.9787881773225990 [Eh]
	 SCS Total Energy          =    -314.9927813533192307 [Eh]
  Basis Set: AUG-CC-PVTZ
  Basis Set:
  @DF-RHF Final Energy:  -313.53509849145320
    Total Energy =                       -313.5350984914531409
  Basis Set:
  Basis Set: AUG-CC-PVTZ
  Basis Set:
  @DF-RHF Final Energy:  -313.53509881104657
    Total Energy =                       -313.5350988110465096
  @DF-RHF Final Energy:  -313.53509836025717
    Total Energy =                       -313.5350983602570523
  @DF-RHF Final Energy:  -313.53509858285594
    Total Energy =                       -313.5350985828558805
  @DF-RHF Final Energy:  -313.53509890663980
    Total Energy =                       -313.5350989066402008
  @DF-RHF Final Energy:  -313.53509903969956
    Total Energy =                       -313.5350990396993893
  @DF-RHF Final Energy:  -313.53509922038319
    Total Energy =                       -313.5350992203834153
  @DF-RHF Final Energy:  -313.53509907713624
    Total Energy =                       -313.5350990771360102
  @DF-RHF Final Energy:  -313.53509913247336
    Total Energy =                       -313.5350991324737606
  @DF-RHF Final Energy:  -313.53509915625750
    Total Energy =                       -313.5350991562575018
  @DF-RHF Final Energy:  -313.53509926487902
    Total Energy =                       -313.5350992648793635
  @DF-RHF Final Energy:  -313.53509917768491
    Total Energy =                       -313.5350991776849696
  @DF-RHF Final Energy:  -313.53509922566576
    Total Energy =                       -313.5350992256656468
  @DF-RHF Final Energy:  -313.53509919660394
    Total Energy =                       -313.5350991966034826
  @DF-RHF Final Energy:  -313.53509918865888
    Total Energy =                       -313.5350991886591601
  @DF-RHF Final Energy:  -313.53509903329018
    Total Energy =                       -313.5350990332900096
  @DF-RHF Final Energy:  -313.53509903130919
    Total Energy =                       -313.5350990313091870
  @DF-RHF Final Energy:  -313.53509831155208
    Total Energy =                       -313.5350983115520762
  @DF-RHF Final Energy:  -313.53509880172396
    Total Energy =                       -313.5350988017237910
  @DF-RHF Final Energy:  -313.53509927286171
    Total Energy =                       -313.5350992728619985
  @DF-RHF Final Energy:  -313.53509908280608
    Total Energy =                       -313.5350990828061981
  @DF-RHF Final Energy:  -313.53509889802342
    Total Energy =                       -313.5350988980235911
  @DF-RHF Final Energy:  -313.53509912608831
    Total Energy =                       -313.5350991260881983
  @DF-RHF Final Energy:  -313.53509897405132
    Total Energy =                       -313.5350989740513228
  @DF-RHF Final Energy:  -313.53509880177705
    Total Energy =                       -313.5350988017772238
  @DF-RHF Final Energy:  -313.53509906345562
    Total Energy =                       -313.5350990634556183
  @DF-RHF Final Energy:  -313.53509914172969
    Total Energy =                       -313.5350991417298587
  @DF-RHF Final Energy:  -313.53509919134342
    Total Energy =                       -313.5350991913430789
  @DF-RHF Final Energy:  -313.53509929428782
    Total Energy =                       -313.5350992942877042
  @DF-RHF Final Energy:  -313.53509925442592
    Total Energy =                       -313.5350992544258020
  @DF-RHF Final Energy:  -313.53509904388710
    Total Energy =                       -313.5350990438869871
  @DF-RHF Final Energy:  -313.53509921683451
    Total Energy =                       -313.5350992168349649
  @DF-RHF Final Energy:  -313.53509929869494
    Total Energy =                       -313.5350992986950587
  @DF-RHF Final Energy:  -313.53509931966926
    Total Energy =                       -313.5350993196690297
  @DF-RHF Final Energy:  -313.53509924429295
    Total Energy =                       -313.5350992442928373
  @DF-RHF Final Energy:  -313.53509927618023
    Total Energy =                       -313.5350992761804605
  @DF-RHF Final Energy:  -313.53509928653546
    Total Energy =                       -313.5350992865350577
  @DF-RHF Final Energy:  -313.53509910061240
    Total Energy =                       -313.5350991006127401
	 Singles Energy            =      -0.0000000000000003 [Eh]
	 Same-Spin Energy          =      -0.3170130333791352 [Eh]
	 Opposite-Spin Energy      =      -1.1266760390846706 [Eh]
	 Correlation Energy        =      -1.4436890724638061 [Eh]
	 Total Energy              =    -314.9787881730762251 [Eh]
	 SCS Total Energy          =    -314.9927813586404000 [Eh]
  Charge       = 0
  Multiplicity = 1
  Basis Set: AUG-CC-PVTZ
  Basis Set:

    Orbital Energies (a.u.)
    -----------------------

    Doubly Occupied:

       1A    -11.213329     2A    -11.212674     3A    -11.211498
       4A    -11.210906     5A    -11.210063     6A    -11.208920
       7A    -11.207286     8A    -11.206540     9A     -1.093065
      10A     -1.058063    11A     -1.008858    12A     -0.953222
      13A     -0.883103    14A     -0.822385    15A     -0.787466
      16A     -0.766881    17A     -0.655818    18A     -0.615659
      19A     -0.608394    20A     -0.596968    21A     -0.568913
      22A     -0.563312    23A     -0.546986    24A     -0.539469
      25A     -0.516698    26A     -0.494234    27A     -0.488697
      28A     -0.473702    29A     -0.464304    30A     -0.463840
      31A     -0.454815    32A     -0.434508    33A     -0.429801

  @DF-RHF Final Energy:  -313.53509918621927

   => Energetics <=

    Nuclear Repulsion Energy =            401.9545489434944443
    One-Electron Energy =               -1219.0385454545476023
    Two-Electron Energy =                 503.5488973248335469
    DFT Exchange-Correlation Energy =       0.0000000000000000
    Empirical Dispersion Energy =           0.0000000000000000
    PCM Polarization Energy =               0.0000000000000000
    EFP Energy =                            0.0000000000000000
    Total Energy =                       -313.5350991862195542
  Basis Set:
    Molecular point group: c1
  Basis Set: AUG-CC-PVTZ
  Basis Set:
  Basis Set:
	 Reference Energy          =    -313.5350991862192700 [Eh]
	 Singles Energy            =      -0.0000000000000001 [Eh]
	 Same-Spin Energy          =      -0.3170130164515639 [Eh]
	 Opposite-Spin Energy      =      -1.1266759732515319 [Eh]
	 Correlation Energy        =      -1.4436889897030960 [Eh]
	 Total Energy              =    -314.9787881759223751 [Eh]

	 ================> DF-SCS-MP2 Energies <==================
	-----------------------------------------------------------
	 SCS Same-Spin Scale       =       0.3333333333333333 [-]
	 SCS Opposite-Spin Scale   =       1.2000000000000000 [-]
	 SCS Same-Spin Energy      =      -0.1056710054838546 [Eh]
	 SCS Opposite-Spin Energy  =      -1.3520111679018383 [Eh]
	 SCS Correlation Energy    =      -1.4576821733856931 [Eh]
	 SCS Total Energy          =    -314.9927813596049759 [Eh]
	-----------------------------------------------------------

  -Total Gradient:
     Atom            X                  Y                   Z
    ------   -----------------  -----------------  -----------------
       1        0.000000008245     0.000000099634    -0.000000041374
       2       -0.000000013570     0.000000161226    -0.000000036185
       3       -0.000000159254    -0.000000115334     0.000000055249
       4        0.000000028382     0.000000007095     0.000000085424
       5        0.000000176626    -0.000000228742     0.000000121729
       6       -0.000000235117     0.000000064212     0.000000164509
       7        0.000000096458     0.000000237202    -0.000000104221
       8       -0.000000091957    -0.000000104049    -0.000000211728
       9       -0.000000044346     0.000000014916    -0.000000003058
      10        0.000000051388    -0.000000026854    -0.000000010016
      11       -0.000000034694     0.000000048068     0.000000001584
      12       -0.000000148369     0.000000150735    -0.000000748010
      13       -0.000000241523    -0.000000334174     0.000000184408
      14        0.000000104144     0.000000307122     0.000000407415
      15        0.000000214376    -0.000000159048     0.000000037507
      16       -0.000000111352     0.000000094801     0.000000093945
      17       -0.000000015114    -0.000000047573    -0.000000145140
      18       -0.000000169950    -0.000000225826     0.000000018927
      19       -0.000000005073     0.000000030411     0.000000191332
      20       -0.000000189840     0.000000157495    -0.000000051556
      21        0.000000211616    -0.000000091723    -0.000000313500
      22        0.000000157429     0.000000155645     0.000000207867
      23       -0.000000055014    -0.000000182706     0.000000039968
      24        0.000000193434    -0.000000232604     0.000000533781
      25       -0.000000066862    -0.000000109855    -0.000000197158
      26        0.000000339941     0.000000329928    -0.000000281698

  **** Optimization is complete! (in 50 steps) ****
    Final optimized geometry and variables:
    Molecular point group: c1

    Geometry (in Angstrom), charge = 0, multiplicity = 1:

    C           -1.313547623631    -1.883615100790    -0.520245998654
    H           -1.122751743639    -2.879212401795    -0.118401290698
    H           -0.359106893266    -1.461942343002    -0.830165719287
    H           -1.928749398045    -1.997759791679    -1.414005548587
    C            3.369234330190    -0.611952680400     0.426477138761
    H            4.262911119879    -0.868623432096    -0.141818553773
    H            2.953993423712    -1.534746997768     0.833783336926
    H            3.673642463580     0.013799492669     1.266355581538
    C           -2.031767544266    -1.006197287628     0.502325402697
    H           -1.447935461445    -0.939877296714     1.424277215357
    H           -2.965205715825    -1.504547325236     0.773320797711
    C            2.339404668576     0.106612461399    -0.436365943315
    H            2.775841183538     1.017268709984    -0.855890534763
    H            2.066112749970    -0.524068498166    -1.287297449246
    C           -2.358457945320     0.406043837696     0.001504580294
    H           -3.258492565797     0.758096671174     0.511691659030
    H           -2.613807790545     0.352705701304    -1.062077381195
    C           -1.278695742154     1.472897986548     0.199937045122
    H           -1.094072977057     1.598103702780     1.271963837513
    H           -1.693514323645     2.421867113659    -0.148327658138
    C            0.058227886650     1.221290706527    -0.507612630784
    H           -0.118263362656     0.684450829471    -1.444770800001
    H            0.505003904334     2.178405414125    -0.790280937630
    C            1.079350326703     0.466547685029     0.339230446869
    H            1.347889855763     1.087598763347     1.200013684364
    H            0.638830505224    -0.445058842441     0.749118422232

*** Psi4 exiting successfully. Buy a developer a beer!
