                              Psi4 1.0.0 Driver

  ==> Input File <==

--------------------------------------------------------------------------
memory 60 Gb

molecule molecule_68_psi {
0 1
C           -2.978357154423    -0.605801480020    -0.455365842883
H           -4.063111368827    -0.657496116222    -0.548525869431
H           -2.544724940330    -0.896670204018    -1.413650732240
H           -2.676452934300    -1.344503896350     0.286599730204
C            2.565791793418     1.246191515424    -0.306467448780
H            2.576026696075     1.411820124977    -1.384775452170
H            3.425706174097     1.764577235417     0.118428769717
H            1.664392729638     1.712855247557     0.087191360001
C           -2.530768563922     0.796707040264    -0.059463336668
H           -2.951276512288     1.047367036764     0.918441057466
H           -2.943449893578     1.518858028538    -0.767941881578
C            2.614262266641    -0.249158643971    -0.002418298431
H            3.538580857323    -0.652882511279    -0.420198335624
H            2.674738579698    -0.408793836178     1.078127181513
C           -1.013758355509     0.974390158124    -0.001511503297
H           -0.803160803214     2.017825861915     0.244727700245
H           -0.595928022472     0.810201611064    -0.998677519242
C           -0.318250439544     0.056097034066     1.014938969785
H           -1.036278181848    -0.209931485912     1.797147512071
H            0.480860357281     0.599069039568     1.523789365894
C            0.269206750343    -1.228948700812     0.427475722841
H            0.637895232999    -1.847487786329     1.251501015953
H           -0.519282004838    -1.804134634976    -0.062367322869
C            1.419258965580    -1.031649669495    -0.563559432665
H            1.749680407006    -2.023716171319    -0.879244222897
H            1.059711997546    -0.534813876473    -1.469121647161
}

set globals {
  reference rhf
  g_convergence gau_verytight
  basis aug-cc-pvtz
  freeze_core true
  scf_type df
  mp_type df
}
optimize('mp2')
--------------------------------------------------------------------------

    Molecular point group: c1
  Charge       = 0
  Multiplicity = 1
  Basis Set: AUG-CC-PVTZ
  Basis Set:
  @DF-RHF Final Energy:  -313.53148298896411
    Total Energy =                       -313.5314829889640578
  Basis Set:
    Molecular point group: c1
  Basis Set: AUG-CC-PVTZ
  Basis Set:
  Basis Set:
	 Reference Energy          =    -313.5314829889641146 [Eh]
	 Singles Energy            =      -0.0000000000000000 [Eh]
	 Same-Spin Energy          =      -0.3177907138642182 [Eh]
	 Opposite-Spin Energy      =      -1.1278512982971156 [Eh]
	 Correlation Energy        =      -1.4456420121613338 [Eh]
	 Total Energy              =    -314.9771250011254438 [Eh]
	 SCS Total Energy          =    -314.9908347848754033 [Eh]
  Basis Set: AUG-CC-PVTZ
  Basis Set:
  @DF-RHF Final Energy:  -313.53148296545095
    Total Energy =                       -313.5314829654510049
  Basis Set:
  Basis Set: AUG-CC-PVTZ
  Basis Set:
  @DF-RHF Final Energy:  -313.53148299671875
    Total Energy =                       -313.5314829967186370
  @DF-RHF Final Energy:  -313.53148309497050
    Total Energy =                       -313.5314830949703264
  @DF-RHF Final Energy:  -313.53148299700337
    Total Energy =                       -313.5314829970033088
  @DF-RHF Final Energy:  -313.53148298844087
    Total Energy =                       -313.5314829884407573
  @DF-RHF Final Energy:  -313.53148305850050
    Total Energy =                       -313.5314830585003278
  @DF-RHF Final Energy:  -313.53148301540398
    Total Energy =                       -313.5314830154039214
  @DF-RHF Final Energy:  -313.53148307163525
    Total Energy =                       -313.5314830716356482
  @DF-RHF Final Energy:  -313.53148300980700
    Total Energy =                       -313.5314830098067773
  @DF-RHF Final Energy:  -313.53148365341104
    Total Energy =                       -313.5314836534114420
  @DF-RHF Final Energy:  -313.53148303223782
    Total Energy =                       -313.5314830322377588
  @DF-RHF Final Energy:  -313.53148301126839
    Total Energy =                       -313.5314830112687901
  @DF-RHF Final Energy:  -313.53148299053908
    Total Energy =                       -313.5314829905389615
  @DF-RHF Final Energy:  -313.53148300405377
    Total Energy =                       -313.5314830040539391
  @DF-RHF Final Energy:  -313.53148302092416
    Total Energy =                       -313.5314830209242700
  @DF-RHF Final Energy:  -313.53148313419899
    Total Energy =                       -313.5314831341992203
  @DF-RHF Final Energy:  -313.53148303081622
    Total Energy =                       -313.5314830308161618
  @DF-RHF Final Energy:  -313.53148305892927
    Total Energy =                       -313.5314830589293820
  @DF-RHF Final Energy:  -313.53148304544203
    Total Energy =                       -313.5314830454419166
  @DF-RHF Final Energy:  -313.53148302599749
    Total Energy =                       -313.5314830259976588
  @DF-RHF Final Energy:  -313.53148313063372
    Total Energy =                       -313.5314831306338874
	 Singles Energy            =      -0.0000000000000002 [Eh]
	 Same-Spin Energy          =      -0.3177906612134647 [Eh]
	 Opposite-Spin Energy      =      -1.1278512145878192 [Eh]
	 Correlation Energy        =      -1.4456418758012841 [Eh]
	 Total Energy              =    -314.9771250064350170 [Eh]
	 SCS Total Energy          =    -314.9908348085435819 [Eh]
  Charge       = 0
  Multiplicity = 1
  Basis Set: AUG-CC-PVTZ
  Basis Set:

    Orbital Energies (a.u.)
    -----------------------

    Doubly Occupied:

       1A    -11.213273     2A    -11.212478     3A    -11.210560
       4A    -11.210263     5A    -11.209801     6A    -11.209539
       7A    -11.207033     8A    -11.205813     9A     -1.093925
      10A     -1.056933    11A     -1.003349    12A     -0.950609
      13A     -0.891681    14A     -0.827311    15A     -0.791521
      16A     -0.747587    17A     -0.650707    18A     -0.629540
      19A     -0.608073    20A     -0.592809    21A     -0.580722
      22A     -0.558847    23A     -0.538049    24A     -0.528194
      25A     -0.524168    26A     -0.507431    27A     -0.490294
      28A     -0.473424    29A     -0.466448    30A     -0.457860
      31A     -0.440077    32A     -0.436536    33A     -0.432514

  @DF-RHF Final Energy:  -313.53148304575433

   => Energetics <=

    Nuclear Repulsion Energy =            405.9996438738691609
    One-Electron Energy =               -1227.1475168731255962
    Two-Electron Energy =                 507.6163899535021073
    DFT Exchange-Correlation Energy =       0.0000000000000000
    Empirical Dispersion Energy =           0.0000000000000000
    PCM Polarization Energy =               0.0000000000000000
    EFP Energy =                            0.0000000000000000
    Total Energy =                       -313.5314830457542712
  Basis Set:
    Molecular point group: c1
  Basis Set: AUG-CC-PVTZ
  Basis Set:
  Basis Set:
	 Reference Energy          =    -313.5314830457543280 [Eh]
	 Singles Energy            =      -0.0000000000000002 [Eh]
	 Same-Spin Energy          =      -0.3177906939874559 [Eh]
	 Opposite-Spin Energy      =      -1.1278512650392032 [Eh]
	 Correlation Energy        =      -1.4456419590266594 [Eh]
	 Total Energy              =    -314.9771250047809872 [Eh]

	 ================> DF-SCS-MP2 Energies <==================
	-----------------------------------------------------------
	 SCS Same-Spin Scale       =       0.3333333333333333 [-]
	 SCS Opposite-Spin Scale   =       1.2000000000000000 [-]
	 SCS Same-Spin Energy      =      -0.1059302313291519 [Eh]
	 SCS Opposite-Spin Energy  =      -1.3534215180470437 [Eh]
	 SCS Correlation Energy    =      -1.4593517493761958 [Eh]
	 SCS Total Energy          =    -314.9908347951305245 [Eh]
	-----------------------------------------------------------

  -Total Gradient:
     Atom            X                  Y                   Z
    ------   -----------------  -----------------  -----------------
       1       -0.000000007726     0.000000534470     0.000000074544
       2       -0.000000265310     0.000000020330     0.000000008009
       3        0.000000212239    -0.000000180795    -0.000000364862
       4        0.000000184108    -0.000000391599     0.000000337808
       5       -0.000000195652    -0.000000480244     0.000000163301
       6       -0.000000023905     0.000000042717    -0.000000334476
       7        0.000000252824     0.000000041599     0.000000114350
       8       -0.000000240683     0.000000151563     0.000000075666
       9       -0.000000113721    -0.000000082346    -0.000000304881
      10       -0.000000117180     0.000000049156     0.000000313081
      11       -0.000000127512     0.000000209886    -0.000000169614
      12        0.000000199616     0.000000546178    -0.000000116102
      13        0.000000256238    -0.000000089707    -0.000000177516
      14       -0.000000093089    -0.000000098891     0.000000172318
      15        0.000000368553    -0.000000923046    -0.000000087822
      16        0.000000007893     0.000000207289     0.000000166458
      17       -0.000000174829     0.000000325752     0.000000228892
      18        0.000000149256     0.000001005367    -0.000000503813
      19       -0.000000466017    -0.000000077108     0.000000418847
      20        0.000000021861    -0.000000100716    -0.000000063184
      21        0.000000570023     0.000000183883    -0.000000415842
      22        0.000000234748    -0.000000320946     0.000000545580
      23       -0.000000371080    -0.000000235228    -0.000000286794
      24       -0.000000560269     0.000000214314     0.000000299468
      25        0.000000113935    -0.000000534325    -0.000000067529
      26        0.000000185678    -0.000000017551    -0.000000025888

  **** Optimization is complete! (in 23 steps) ****
    Final optimized geometry and variables:
    Molecular point group: c1

    Geometry (in Angstrom), charge = 0, multiplicity = 1:

    C           -2.978365331094    -0.605797194190    -0.455357743668
    H           -4.063120386512    -0.657490321213    -0.548508604356
    H           -2.544741286022    -0.896670668057    -1.413645046341
    H           -2.676456045915    -1.344497633453     0.286608046920
    C            2.565787380084     1.246194287962    -0.306457546173
    H            2.576011727005     1.411828561974    -1.384765128418
    H            3.425704348976     1.764580820668     0.118433318962
    H            1.664390350953     1.712853322426     0.087212124193
    C           -2.530769520879     0.796711348278    -0.059464421882
    H           -2.951271250571     1.047378266105     0.918440819984
    H           -2.943450705826     1.518860856969    -0.767944563926
    C            2.614266376309    -0.249157160420    -0.002416429877
    H            3.538586187385    -0.652873728453    -0.420201460544
    H            2.674746228108    -0.408798022266     1.078127770032
    C           -1.013757675517     0.974385943626    -0.001520570680
    H           -0.803152921024     2.017822002949     0.244711701947
    H           -0.595934021140     0.810189321430    -0.998686698013
    C           -0.318251802593     0.056093979535     1.014932474771
    H           -1.036281012975    -0.209936528222     1.797139103871
    H            0.480856262849     0.599066776256     1.523784199278
    C            0.269209832292    -1.228950946307     0.427470689426
    H            0.637893951975    -1.847490060357     1.251497758005
    H           -0.519276835042    -1.804136355990    -0.062376113977
    C            1.419266642751    -1.031652884489    -0.563558891855
    H            1.749691865774    -2.023720721094    -0.879236281158
    H            1.059724306253    -0.534823656685    -1.469125116844

*** Psi4 exiting successfully. Buy a developer a beer!
