                              Psi4 1.0.0 Driver

  ==> Input File <==

--------------------------------------------------------------------------
memory 60 Gb

molecule molecule_28_psi {
0 1
C           -3.370513258808     1.060194064633     0.027585483087
H           -4.355979353959     1.012356881779    -0.435098056467
H           -2.888733838473     1.981083276446    -0.303464504270
H           -3.509724418757     1.128559505103     1.107222289794
C            2.062991087480     1.679417010997     0.451670730402
H            1.977285601513     2.714026716590     0.119582955485
H            3.005097287693     1.578519130815     0.993229112999
H            1.254349866486     1.490351071443     1.156905820673
C           -2.520145963759    -0.152285873413    -0.330959335356
H           -2.411376816133    -0.219097216159    -1.416919014783
H           -3.027410789330    -1.067612175156    -0.014104574345
C            2.020280224765     0.714678340213    -0.727926092307
H            1.081158626507     0.829754747545    -1.274232572076
H            2.812391020193     0.978731325830    -1.432568156061
C           -1.137176988613    -0.100855960093     0.305660483278
H           -1.243847137404    -0.033348430592     1.393547046411
H           -0.634050284349     0.815410605625    -0.010930466238
C           -0.287786290374    -1.323074683377    -0.031846781527
H           -0.202285653964    -1.416534860486    -1.119982153389
H           -0.833179831033    -2.208640753072     0.305638597527
C            1.115700292918    -1.321818217013     0.588971532150
H            1.090710252411    -0.784944025424     1.541321211201
H            1.401959705978    -2.347692140589     0.831105438179
C            2.205007849660    -0.744712680419    -0.317386922227
H            3.172296608023    -0.844474514564     0.184830510209
H            2.259288049014    -1.362512043247    -1.218501993097
}

set globals {
  reference rhf
  g_convergence gau_verytight
  basis aug-cc-pvtz
  freeze_core true
  scf_type df
  mp_type df
}
optimize('mp2')
--------------------------------------------------------------------------

    Molecular point group: c1
  Charge       = 0
  Multiplicity = 1
  Basis Set: AUG-CC-PVTZ
  Basis Set:
  @DF-RHF Final Energy:  -313.53868989584561
    Total Energy =                       -313.5386898958457778
  Basis Set:
    Molecular point group: c1
  Basis Set: AUG-CC-PVTZ
  Basis Set:
  Basis Set:
	 Reference Energy          =    -313.5386898958456072 [Eh]
	 Singles Energy            =      -0.0000000000000001 [Eh]
	 Same-Spin Energy          =      -0.3167119558461343 [Eh]
	 Opposite-Spin Energy      =      -1.1260295605863047 [Eh]
	 Correlation Energy        =      -1.4427415164324389 [Eh]
	 Total Energy              =    -314.9814314122780274 [Eh]
	 SCS Total Energy          =    -314.9954960204979102 [Eh]
  Basis Set: AUG-CC-PVTZ
  Basis Set:
  @DF-RHF Final Energy:  -313.53868980569280
    Total Energy =                       -313.5386898056926839
  Basis Set:
  Basis Set: AUG-CC-PVTZ
  Basis Set:
  @DF-RHF Final Energy:  -313.53868984318200
    Total Energy =                       -313.5386898431821123
  @DF-RHF Final Energy:  -313.53868984394279
    Total Energy =                       -313.5386898439428478
  @DF-RHF Final Energy:  -313.53868983551718
    Total Energy =                       -313.5386898355171184
  @DF-RHF Final Energy:  -313.53868844179920
    Total Energy =                       -313.5386884417991951
  @DF-RHF Final Energy:  -313.53868975853567
    Total Energy =                       -313.5386897585356110
  @DF-RHF Final Energy:  -313.53868977715933
    Total Energy =                       -313.5386897771592203
  @DF-RHF Final Energy:  -313.53868981266078
    Total Energy =                       -313.5386898126608344
  @DF-RHF Final Energy:  -313.53868980967735
    Total Energy =                       -313.5386898096777486
  @DF-RHF Final Energy:  -313.53868982108139
    Total Energy =                       -313.5386898210812205
  @DF-RHF Final Energy:  -313.53868978187279
    Total Energy =                       -313.5386897818729039
  @DF-RHF Final Energy:  -313.53868983026865
    Total Energy =                       -313.5386898302685950
  @DF-RHF Final Energy:  -313.53868948822958
    Total Energy =                       -313.5386894882298066
  @DF-RHF Final Energy:  -313.53868980443912
    Total Energy =                       -313.5386898044387181
  @DF-RHF Final Energy:  -313.53868981459709
    Total Energy =                       -313.5386898145973760
  @DF-RHF Final Energy:  -313.53868985579300
    Total Energy =                       -313.5386898557929385
  @DF-RHF Final Energy:  -313.53868986235790
    Total Energy =                       -313.5386898623581260
  @DF-RHF Final Energy:  -313.53868987145535
    Total Energy =                       -313.5386898714551762
  @DF-RHF Final Energy:  -313.53868979700252
    Total Energy =                       -313.5386897970023483
	 Singles Energy            =      -0.0000000000000001 [Eh]
	 Same-Spin Energy          =      -0.3167119044384816 [Eh]
	 Opposite-Spin Energy      =      -1.1260297124789627 [Eh]
	 Correlation Energy        =      -1.4427416169174443 [Eh]
	 Total Energy              =    -314.9814314139199496 [Eh]
	 SCS Total Energy          =    -314.9954960867901264 [Eh]
  Charge       = 0
  Multiplicity = 1
  Basis Set: AUG-CC-PVTZ
  Basis Set:

    Orbital Energies (a.u.)
    -----------------------

    Doubly Occupied:

       1A    -11.212447     2A    -11.212353     3A    -11.211047
       4A    -11.210690     5A    -11.209902     6A    -11.209272
       7A    -11.207248     8A    -11.206451     9A     -1.093773
      10A     -1.059620    11A     -1.008135    12A     -0.949965
      13A     -0.884341    14A     -0.827765    15A     -0.788738
      16A     -0.756768    17A     -0.654852    18A     -0.625156
      19A     -0.617244    20A     -0.582231    21A     -0.571546
      22A     -0.565233    23A     -0.542899    24A     -0.530311
      25A     -0.527309    26A     -0.493140    27A     -0.488160
      28A     -0.475524    29A     -0.466213    30A     -0.463117
      31A     -0.448450    32A     -0.439257    33A     -0.430828

  @DF-RHF Final Energy:  -313.53868985924152

   => Energetics <=

    Nuclear Repulsion Energy =            399.1727265841337271
    One-Electron Energy =               -1213.4828663219823284
    Two-Electron Energy =                 500.7714498786071999
    DFT Exchange-Correlation Energy =       0.0000000000000000
    Empirical Dispersion Energy =           0.0000000000000000
    PCM Polarization Energy =               0.0000000000000000
    EFP Energy =                            0.0000000000000000
    Total Energy =                       -313.5386898592414582
  Basis Set:
    Molecular point group: c1
  Basis Set: AUG-CC-PVTZ
  Basis Set:
  Basis Set:
	 Reference Energy          =    -313.5386898592415150 [Eh]
	 Singles Energy            =      -0.0000000000000001 [Eh]
	 Same-Spin Energy          =      -0.3167119385783916 [Eh]
	 Opposite-Spin Energy      =      -1.1260296156075706 [Eh]
	 Correlation Energy        =      -1.4427415541859623 [Eh]
	 Total Energy              =    -314.9814314134274582 [Eh]

	 ================> DF-SCS-MP2 Energies <==================
	-----------------------------------------------------------
	 SCS Same-Spin Scale       =       0.3333333333333333 [-]
	 SCS Opposite-Spin Scale   =       1.2000000000000000 [-]
	 SCS Same-Spin Energy      =      -0.1055706461927972 [Eh]
	 SCS Opposite-Spin Energy  =      -1.3512355387290846 [Eh]
	 SCS Correlation Energy    =      -1.4568061849218819 [Eh]
	 SCS Total Energy          =    -314.9954960441634171 [Eh]
	-----------------------------------------------------------

  -Total Gradient:
     Atom            X                  Y                   Z
    ------   -----------------  -----------------  -----------------
       1       -0.000000024755     0.000000123358     0.000000115588
       2        0.000000129900     0.000000011163     0.000000066129
       3       -0.000000073110    -0.000000208603     0.000000051820
       4        0.000000031397    -0.000000039787    -0.000000245100
       5        0.000000220498    -0.000000125001    -0.000000036975
       6        0.000000014524     0.000000062224    -0.000000013932
       7        0.000000133753    -0.000000008284     0.000000088048
       8       -0.000000078627    -0.000000001969     0.000000036865
       9       -0.000000175465    -0.000000447582    -0.000000238889
      10        0.000000021062     0.000000059612     0.000000367191
      11        0.000000263438     0.000000339204    -0.000000031941
      12       -0.000000132494     0.000000149640     0.000000108531
      13       -0.000000190603     0.000000030157    -0.000000047902
      14        0.000000143742    -0.000000001763    -0.000000029620
      15        0.000000250769     0.000000702437     0.000000313898
      16        0.000000134545    -0.000000119240    -0.000000611810
      17       -0.000000411684    -0.000000560657     0.000000110974
      18       -0.000000571712    -0.000000181159    -0.000000100474
      19        0.000000031152     0.000000025038     0.000000296423
      20        0.000000216032     0.000000223130    -0.000000143333
      21        0.000000022617     0.000000074113    -0.000000072129
      22       -0.000000236257     0.000000083536     0.000000095652
      23        0.000000173039    -0.000000175900    -0.000000004451
      24       -0.000000297178     0.000000219315     0.000000024315
      25        0.000000293937    -0.000000004534     0.000000186588
      26        0.000000111474    -0.000000228446    -0.000000285464

  **** Optimization is complete! (in 21 steps) ****
    Final optimized geometry and variables:
    Molecular point group: c1

    Geometry (in Angstrom), charge = 0, multiplicity = 1:

    C           -3.370509545375     1.060196168337     0.027577987039
    H           -4.355978819063     1.012354850245    -0.435098020533
    H           -2.888728199085     1.981076654217    -0.303492231541
    H           -3.509712439513     1.128581455110     1.107214118981
    C            2.063001162135     1.679416328045     0.451681782568
    H            1.977304630430     2.714029385118     0.119599394997
    H            3.005109754481     1.578506009045     0.993235755478
    H            1.254360072308     1.490354541661     1.156919710788
    C           -2.520150859611    -0.152293775987    -0.330951339122
    H           -2.411389982390    -0.219123701495    -1.416910267633
    H           -3.027416903506    -1.067611886296    -0.014076494119
    C            2.020275536686     0.714686474808    -0.727920883908
    H            1.081149183248     0.829770225710    -1.274221316830
    H            2.812384486706     0.978742438215    -1.432565423813
    C           -1.137177563443    -0.100857375871     0.305657482268
    H           -1.243840022442    -0.033343580483     1.393543901598
    H           -0.634057286241     0.815409163023    -0.010941537715
    C           -0.287788579454    -1.323077896951    -0.031848630492
    H           -0.202289289471    -1.416543134164    -1.119984202589
    H           -0.833182712287    -2.208642062967     0.305641836498
    C            1.115700448004    -1.321819972070     0.588965900274
    H            1.090709761649    -0.784948889546     1.541318885951
    H            1.401964288834    -2.347694810523     0.831094755860
    C            2.205004913432    -0.744708320401    -0.317393538433
    H            3.172296553810    -0.844472917934     0.184820895532
    H            2.259282973423    -1.362502212265    -1.218514252911

*** Psi4 exiting successfully. Buy a developer a beer!
