                              Psi4 1.0.0 Driver

  ==> Input File <==

--------------------------------------------------------------------------
memory 60 Gb

molecule molecule_04_psi {
0 1
C            4.278351127304    -0.538648454875     0.102601300081
H            5.220718934462    -0.073487586030    -0.185531442007
H            4.205285916711    -1.496543742395    -0.413834624540
H            4.317980446187    -0.741614495082     1.173510032684
C           -3.672190464619    -1.054561995206    -0.312151547826
H           -2.966967651997    -1.842894137260    -0.052063787861
H           -3.670572002290    -0.949852832882    -1.398500050953
H           -4.664814594134    -1.387496550166    -0.009898277244
C            3.086141089519     0.348227360316    -0.234579469109
H            3.075458002657     0.561125945838    -1.306824714674
H            3.187658833456     1.311968728578     0.271409467572
C           -3.307493460634     0.267465576711     0.354886087221
H           -4.093195483080     0.999069598568     0.153796109244
H           -3.277443880416     0.135216576094     1.439961876081
C            1.758443195364    -0.285422797649     0.161191245654
H            1.766564013932    -0.498620003741     1.235041362913
H            1.654728072056    -1.250846304547    -0.344624914705
C            0.555402389118     0.588088881578    -0.169627229690
H            0.546294693547     0.798415848707    -1.243964336595
H            0.660563230925     1.554486700614     0.333680892834
C           -0.771864019033    -0.045400790094     0.228793432550
H           -0.862748655876    -1.015696765990    -0.266151367701
H           -0.769336855906    -0.243604521415     1.305991875279
C           -1.969421638228     0.832544761881    -0.116104572992
H           -1.819045539066     1.820091680995     0.329434880038
H           -2.003518165828     0.983233792170    -1.200145499834
}

set globals {
  reference rhf
  g_convergence gau_verytight
  basis aug-cc-pvtz
  freeze_core true
  scf_type df
  mp_type df
}
optimize('mp2')
--------------------------------------------------------------------------

    Molecular point group: c1
  Charge       = 0
  Multiplicity = 1
  Basis Set: AUG-CC-PVTZ
  Basis Set:
  @DF-RHF Final Energy:  -313.54607282149419
    Total Energy =                       -313.5460728214939081
  Basis Set:
    Molecular point group: c1
  Basis Set: AUG-CC-PVTZ
  Basis Set:
  Basis Set:
	 Reference Energy          =    -313.5460728214941923 [Eh]
	 Singles Energy            =      -0.0000000000000003 [Eh]
	 Same-Spin Energy          =      -0.3149215235813035 [Eh]
	 Opposite-Spin Energy      =      -1.1234384923537453 [Eh]
	 Correlation Energy        =      -1.4383600159350489 [Eh]
	 Total Energy              =    -314.9844328374292672 [Eh]
	 SCS Total Energy          =    -314.9991728535124480 [Eh]
  Basis Set: AUG-CC-PVTZ
  Basis Set:
  @DF-RHF Final Energy:  -313.54607286420958
    Total Energy =                       -313.5460728642095773
  Basis Set:
  Basis Set: AUG-CC-PVTZ
  Basis Set:
  @DF-RHF Final Energy:  -313.54607276272196
    Total Energy =                       -313.5460727627215078
  @DF-RHF Final Energy:  -313.54607287303838
    Total Energy =                       -313.5460728730381561
  @DF-RHF Final Energy:  -313.54607277419831
    Total Energy =                       -313.5460727741980236
  @DF-RHF Final Energy:  -313.54607284247078
    Total Energy =                       -313.5460728424705508
  @DF-RHF Final Energy:  -313.54607276751682
    Total Energy =                       -313.5460727675168187
  @DF-RHF Final Energy:  -313.54607282964832
    Total Energy =                       -313.5460728296483239
  @DF-RHF Final Energy:  -313.54607284770941
    Total Energy =                       -313.5460728477092971
  @DF-RHF Final Energy:  -313.54607282824219
    Total Energy =                       -313.5460728282421883
	 Singles Energy            =      -0.0000000000000001 [Eh]
	 Same-Spin Energy          =      -0.3149215245943934 [Eh]
	 Opposite-Spin Energy      =      -1.1234384848204177 [Eh]
	 Correlation Energy        =      -1.4383600094148110 [Eh]
	 Total Energy              =    -314.9844328376569820 [Eh]
	 SCS Total Energy          =    -314.9991728515581713 [Eh]
  Charge       = 0
  Multiplicity = 1
  Basis Set: AUG-CC-PVTZ
  Basis Set:

    Orbital Energies (a.u.)
    -----------------------

    Doubly Occupied:

       1A    -11.212757     2A    -11.212367     3A    -11.210374
       4A    -11.210213     5A    -11.209684     6A    -11.209148
       7A    -11.206989     8A    -11.206477     9A     -1.093098
      10A     -1.062361    11A     -1.011467    12A     -0.947168
      13A     -0.882628    14A     -0.819306    15A     -0.784963
      16A     -0.771051    17A     -0.654268    18A     -0.623219
      19A     -0.611470    20A     -0.591897    21A     -0.580840
      22A     -0.555031    23A     -0.543134    24A     -0.532732
      25A     -0.510018    26A     -0.495441    27A     -0.487711
      28A     -0.475868    29A     -0.465027    30A     -0.459487
      31A     -0.456148    32A     -0.450415    33A     -0.427663

  @DF-RHF Final Energy:  -313.54607288371130

   => Energetics <=

    Nuclear Repulsion Energy =            380.6414809552223915
    One-Electron Energy =               -1176.4342662777253281
    Two-Electron Energy =                 482.2467124387918034
    DFT Exchange-Correlation Energy =       0.0000000000000000
    Empirical Dispersion Energy =           0.0000000000000000
    PCM Polarization Energy =               0.0000000000000000
    EFP Energy =                            0.0000000000000000
    Total Energy =                       -313.5460728837111333
  Basis Set:
    Molecular point group: c1
  Basis Set: AUG-CC-PVTZ
  Basis Set:
  Basis Set:
	 Reference Energy          =    -313.5460728837113038 [Eh]
	 Singles Energy            =      -0.0000000000000003 [Eh]
	 Same-Spin Energy          =      -0.3149215204502708 [Eh]
	 Opposite-Spin Energy      =      -1.1234384311409147 [Eh]
	 Correlation Energy        =      -1.4383599515911858 [Eh]
	 Total Energy              =    -314.9844328353024707 [Eh]

	 ================> DF-SCS-MP2 Energies <==================
	-----------------------------------------------------------
	 SCS Same-Spin Scale       =       0.3333333333333333 [-]
	 SCS Opposite-Spin Scale   =       1.2000000000000000 [-]
	 SCS Same-Spin Energy      =      -0.1049738401500903 [Eh]
	 SCS Opposite-Spin Energy  =      -1.3481261173690975 [Eh]
	 SCS Correlation Energy    =      -1.4530999575191881 [Eh]
	 SCS Total Energy          =    -314.9991728412305179 [Eh]
	-----------------------------------------------------------

  -Total Gradient:
     Atom            X                  Y                   Z
    ------   -----------------  -----------------  -----------------
       1       -0.000000348972     0.000000340585    -0.000000125893
       2        0.000000259625     0.000000108401    -0.000000087742
       3        0.000000009553    -0.000000466418    -0.000000203892
       4        0.000000056342    -0.000000135464     0.000000439160
       5        0.000000162904     0.000000289339     0.000000164937
       6        0.000000194829    -0.000000250333     0.000000022117
       7       -0.000000014746     0.000000001010    -0.000000266460
       8       -0.000000190812    -0.000000048606     0.000000077028
       9       -0.000000056834    -0.000000739805     0.000000318094
      10        0.000000138046     0.000000236167    -0.000000606333
      11        0.000000177711     0.000000584818     0.000000191645
      12        0.000000245835    -0.000000159343    -0.000000308397
      13       -0.000000139399     0.000000130405    -0.000000019925
      14       -0.000000036090    -0.000000014621     0.000000230914
      15        0.000000154412     0.000001477818    -0.000000604441
      16        0.000000129976    -0.000000306774     0.000001073890
      17       -0.000000040534    -0.000001094113    -0.000000414908
      18       -0.000000850262    -0.000001021565     0.000000553438
      19        0.000000027085     0.000000322479    -0.000000840154
      20        0.000000097491     0.000000845338     0.000000320515
      21        0.000000122293     0.000000850379    -0.000000486490
      22       -0.000000215918    -0.000000754306    -0.000000224948
      23       -0.000000097581    -0.000000162984     0.000000744884
      24        0.000000349055    -0.000000550773     0.000000305669
      25       -0.000000016094     0.000000366500     0.000000148870
      26       -0.000000117920     0.000000151868    -0.000000401575

  **** Optimization is complete! (in 11 steps) ****
    Final optimized geometry and variables:
    Molecular point group: c1

    Geometry (in Angstrom), charge = 0, multiplicity = 1:

    C            4.278345582020    -0.538658701622     0.102600392206
    H            5.220716814110    -0.073512389847    -0.185542366576
    H            4.205268308020    -1.496560543363    -0.413821002816
    H            4.317976498252    -0.741609750931     1.173511504362
    C           -3.672185009403    -1.054566307283    -0.312165779320
    H           -2.966958076823    -1.842899058034    -0.052090512992
    H           -3.670569213981    -0.949842002600    -1.398512854686
    H           -4.664807022939    -1.387509941482    -0.009915524287
    C            3.086142646703     0.348223750229    -0.234588799493
    H            3.075456810334     0.561106643283    -1.306836395660
    H            3.187670777491     1.311970948867     0.271385295951
    C           -3.307494043086     0.267454356177     0.354888876646
    H           -4.093198870748     0.999057431572     0.153807705787
    H           -3.277444849736     0.135192452769     1.439962917325
    C            1.758442460729    -0.285410795304     0.161197170010
    H            1.766567102105    -0.498590978129     1.235050249775
    H            1.654720072109    -1.250841723480    -0.344602796923
    C            0.555402540735     0.588098424729    -0.169628274014
    H            0.546293105166     0.798414966445    -1.243966640401
    H            0.660563268717     1.554500484074     0.333669954773
    C           -0.771861055976    -0.045392339646     0.228800536019
    H           -0.862744187780    -1.015690918174    -0.266139517670
    H           -0.769327931672    -0.243591276069     1.305999737769
    C           -1.969424664287     0.832546116755    -0.116094082968
    H           -1.819056597441     1.820090899406     0.329452024265
    H           -2.003519531334     0.983243334025    -1.200133741929

*** Psi4 exiting successfully. Buy a developer a beer!
