                              Psi4 1.0.0 Driver

  ==> Input File <==

--------------------------------------------------------------------------
memory 60 Gb

molecule molecule_53_psi {
0 1
C            3.393734654165    -0.183054533411     0.729314727226
H            4.454771885679    -0.422550643266     0.663298951584
H            3.002851320489    -0.641980993587     1.639206251222
H            3.305895635375     0.897301172169     0.836492226308
C           -3.383478715505    -0.656085238071    -0.413778136996
H           -3.126903410321    -0.202222500802    -1.371084064355
H           -4.159200463285    -0.042258444932     0.046409859927
H           -3.809344581157    -1.638294206494    -0.617687580299
C            2.637555759936    -0.689763387129    -0.494390814246
H            2.841375613364    -1.754800120068    -0.625568172836
H            3.012204283595    -0.188877615385    -1.391391127681
C           -2.168192615174    -0.756795925442     0.502007093120
H           -2.470346309072    -1.221714070430     1.443341991844
H           -1.424240028017    -1.417031179665     0.052879527935
C            1.127435775340    -0.480872595402    -0.398783824419
H            0.755247285631    -0.998692721545     0.490188464630
H            0.643250427069    -0.950587234037    -1.260484456739
C            0.722665425425     0.988673652655    -0.348872274277
H            1.192613620832     1.508348945569    -1.190202666242
H            1.117657844670     1.448877714478     0.560830086751
C           -0.786719932969     1.226321327663    -0.393054841281
H           -0.961751174570     2.303828675569    -0.419641634876
H           -1.184883505827     0.830666596410    -1.331980467343
C           -1.542231673383     0.608763563983     0.793951695381
H           -0.856079938777     0.527272406406     1.642293656092
H           -2.342271020984     1.281800016931     1.114176222891
}

set globals {
  reference rhf
  g_convergence gau_verytight
  basis aug-cc-pvtz
  freeze_core true
  scf_type df
  mp_type df
}
optimize('mp2')
--------------------------------------------------------------------------

    Molecular point group: c1
  Charge       = 0
  Multiplicity = 1
  Basis Set: AUG-CC-PVTZ
  Basis Set:
  @DF-RHF Final Energy:  -313.53705380598382
    Total Energy =                       -313.5370538059841010
  Basis Set:
    Molecular point group: c1
  Basis Set: AUG-CC-PVTZ
  Basis Set:
  Basis Set:
	 Reference Energy          =    -313.5370538059838168 [Eh]
	 Singles Energy            =      -0.0000000000000004 [Eh]
	 Same-Spin Energy          =      -0.3166952380407549 [Eh]
	 Opposite-Spin Energy      =      -1.1261670088747369 [Eh]
	 Correlation Energy        =      -1.4428622469154921 [Eh]
	 Total Energy              =    -314.9799160528992843 [Eh]
	 SCS Total Energy          =    -314.9940192959804222 [Eh]
  Basis Set: AUG-CC-PVTZ
  Basis Set:
  @DF-RHF Final Energy:  -313.53705371776192
    Total Energy =                       -313.5370537177619212
  Basis Set:
  Basis Set: AUG-CC-PVTZ
  Basis Set:
  @DF-RHF Final Energy:  -313.53705370534158
    Total Energy =                       -313.5370537053411226
  @DF-RHF Final Energy:  -313.53705391836166
    Total Energy =                       -313.5370539183617211
  @DF-RHF Final Energy:  -313.53705374693709
    Total Energy =                       -313.5370537469369197
  @DF-RHF Final Energy:  -313.53705380364698
    Total Energy =                       -313.5370538036466996
  @DF-RHF Final Energy:  -313.53705387017999
    Total Energy =                       -313.5370538701799319
  @DF-RHF Final Energy:  -313.53705383194745
    Total Energy =                       -313.5370538319470484
  @DF-RHF Final Energy:  -313.53705380135443
    Total Energy =                       -313.5370538013544888
  @DF-RHF Final Energy:  -313.53705381990886
    Total Energy =                       -313.5370538199088060
  @DF-RHF Final Energy:  -313.53705378889674
    Total Energy =                       -313.5370537888963440
  @DF-RHF Final Energy:  -313.53705382144636
    Total Energy =                       -313.5370538214461931
  @DF-RHF Final Energy:  -313.53705383983976
    Total Energy =                       -313.5370538398397002
  @DF-RHF Final Energy:  -313.53705383805357
    Total Energy =                       -313.5370538380535095
  @DF-RHF Final Energy:  -313.53705382462562
    Total Energy =                       -313.5370538246259571
  @DF-RHF Final Energy:  -313.53705389034735
    Total Energy =                       -313.5370538903472379
  @DF-RHF Final Energy:  -313.53705383375456
    Total Energy =                       -313.5370538337547259
  @DF-RHF Final Energy:  -313.53705383084042
    Total Energy =                       -313.5370538308403070
  @DF-RHF Final Energy:  -313.53705380320849
    Total Energy =                       -313.5370538032084937
	 Singles Energy            =      -0.0000000000000001 [Eh]
	 Same-Spin Energy          =      -0.3166952107169980 [Eh]
	 Opposite-Spin Energy      =      -1.1261670409650280 [Eh]
	 Correlation Energy        =      -1.4428622516820260 [Eh]
	 Total Energy              =    -314.9799160548905093 [Eh]
	 SCS Total Energy          =    -314.9940193226055385 [Eh]
  Charge       = 0
  Multiplicity = 1
  Basis Set: AUG-CC-PVTZ
  Basis Set:

    Orbital Energies (a.u.)
    -----------------------

    Doubly Occupied:

       1A    -11.212952     2A    -11.211616     3A    -11.210586
       4A    -11.210400     5A    -11.209994     6A    -11.209574
       7A    -11.206761     8A    -11.206155     9A     -1.094209
      10A     -1.059020    11A     -1.007737    12A     -0.942621
      13A     -0.891483    14A     -0.831670    15A     -0.780229
      16A     -0.760408    17A     -0.642098    18A     -0.626575
      19A     -0.612964    20A     -0.600825    21A     -0.576331
      22A     -0.564031    23A     -0.541441    24A     -0.531493
      25A     -0.505687    26A     -0.500845    27A     -0.496003
      28A     -0.476059    29A     -0.467389    30A     -0.458845
      31A     -0.446563    32A     -0.435734    33A     -0.432867

  @DF-RHF Final Energy:  -313.53705381533501

   => Energetics <=

    Nuclear Repulsion Energy =            397.0682964474811456
    One-Electron Energy =               -1209.2883719694448246
    Two-Electron Energy =                 498.6830217066286650
    DFT Exchange-Correlation Energy =       0.0000000000000000
    Empirical Dispersion Energy =           0.0000000000000000
    PCM Polarization Energy =               0.0000000000000000
    EFP Energy =                            0.0000000000000000
    Total Energy =                       -313.5370538153350708
  Basis Set:
    Molecular point group: c1
  Basis Set: AUG-CC-PVTZ
  Basis Set:
  Basis Set:
	 Reference Energy          =    -313.5370538153350140 [Eh]
	 Singles Energy            =      -0.0000000000000002 [Eh]
	 Same-Spin Energy          =      -0.3166952245045439 [Eh]
	 Opposite-Spin Energy      =      -1.1261670145352292 [Eh]
	 Correlation Energy        =      -1.4428622390397734 [Eh]
	 Total Energy              =    -314.9799160543747689 [Eh]

	 ================> DF-SCS-MP2 Energies <==================
	-----------------------------------------------------------
	 SCS Same-Spin Scale       =       0.3333333333333333 [-]
	 SCS Opposite-Spin Scale   =       1.2000000000000000 [-]
	 SCS Same-Spin Energy      =      -0.1055650748348480 [Eh]
	 SCS Opposite-Spin Energy  =      -1.3514004174422749 [Eh]
	 SCS Correlation Energy    =      -1.4569654922771231 [Eh]
	 SCS Total Energy          =    -314.9940193076121204 [Eh]
	-----------------------------------------------------------

  -Total Gradient:
     Atom            X                  Y                   Z
    ------   -----------------  -----------------  -----------------
       1       -0.000000056339    -0.000000042053    -0.000000121296
       2        0.000000136297    -0.000000050158    -0.000000017446
       3       -0.000000038598    -0.000000039637     0.000000134335
       4       -0.000000014697     0.000000097414     0.000000006504
       5       -0.000000037466     0.000000029032    -0.000000020296
       6       -0.000000025871    -0.000000031178     0.000000070602
       7        0.000000083535    -0.000000068759    -0.000000038660
       8        0.000000037173     0.000000037904     0.000000021505
       9       -0.000000233268     0.000000244325     0.000000044295
      10        0.000000041714    -0.000000143442    -0.000000004286
      11        0.000000037488     0.000000040762    -0.000000070318
      12        0.000000031837    -0.000000008823    -0.000000019072
      13        0.000000032004    -0.000000004846    -0.000000029456
      14       -0.000000028585     0.000000036146     0.000000011562
      15        0.000000181720    -0.000000235354    -0.000000013638
      16       -0.000000068267     0.000000057737    -0.000000008234
      17        0.000000000325     0.000000035433     0.000000007598
      18        0.000000087216     0.000000034193     0.000000024282
      19        0.000000014607     0.000000002778    -0.000000001648
      20        0.000000019775     0.000000018983     0.000000027714
      21       -0.000000134249    -0.000000036379    -0.000000078706
      22       -0.000000017344    -0.000000081669     0.000000009661
      23        0.000000015935     0.000000023124     0.000000031637
      24       -0.000000096706     0.000000147710     0.000000164378
      25       -0.000000090796    -0.000000034652    -0.000000095351
      26        0.000000122561    -0.000000028593    -0.000000035666

  **** Optimization is complete! (in 20 steps) ****
    Final optimized geometry and variables:
    Molecular point group: c1

    Geometry (in Angstrom), charge = 0, multiplicity = 1:

    C            3.393742656856    -0.183054584983     0.729299296779
    H            4.454779563522    -0.422547535835     0.663270082907
    H            3.002872128746    -0.641981880026     1.639195530954
    H            3.305902225707     0.897300563489     0.836477733830
    C           -3.383467943576    -0.656092352574    -0.413794364128
    H           -3.126876612143    -0.202243440409    -1.371103129863
    H           -4.159196437074    -0.042257762946     0.046373141100
    H           -3.809332388536    -1.638303969151    -0.617696457327
    C            2.637549526140    -0.689766147539    -0.494396582591
    H            2.841368896528    -1.754802735419    -0.625574445580
    H            3.012187225545    -0.188882070715    -1.391401864825
    C           -2.168196220485    -0.756793204983     0.502011476585
    H           -2.470365324850    -1.221702656299     1.443346451977
    H           -1.424235287948    -1.417032980351     0.052901660395
    C            1.127430963202    -0.480875091680    -0.398772908332
    H            0.755252487425    -0.998692483017     0.490204716047
    H            0.643235759289    -0.950590135419    -1.260467393211
    C            0.722665307699     0.988671885505    -0.348860094350
    H            1.192616431174     1.508345575619    -1.190189210296
    H            1.117658842252     1.448873856069     0.560842410183
    C           -0.786718119991     1.226327569140    -0.393045965806
    H           -0.961742480268     2.303836294010    -0.419629196629
    H           -1.184879681982     0.830679886544    -1.331975795519
    C           -1.542239093248     0.608768942420     0.793955100085
    H           -0.856094154682     0.527282180487     1.642303946555
    H           -2.342284642332     1.281803299173     1.114171100754

*** Psi4 exiting successfully. Buy a developer a beer!
