                              Psi4 1.0.0 Driver

  ==> Input File <==

--------------------------------------------------------------------------
memory 60 Gb

molecule molecule_36_psi {
0 1
C            3.179712176636     0.771468307006     0.771055058341
H            4.215278190028     1.108065681068     0.728488499182
H            3.155383599735    -0.146372843823     1.357011807704
H            2.604016148373     1.526719475387     1.309136388218
C           -3.216928149583     1.325651401596     0.262189652862
H           -4.010241336381     0.792172173423     0.787722440701
H           -3.684072955399     2.001037756938    -0.454166100030
H           -2.683373123234     1.931498285774     0.995922587050
C            2.611250663498     0.560064512581    -0.628281376720
H            3.171416783122    -0.229279066472    -1.137207881271
H            2.755158793153     1.470309740263    -1.214619285731
C           -2.268936291192     0.348055111631    -0.420735011516
H           -2.811321274311    -0.226530143127    -1.176389134056
H           -1.491393950402     0.898178763799    -0.952795593104
C            1.127103977648     0.198741262072    -0.627555229495
H            0.765894978268     0.154551920416    -1.659438783953
H            0.569779654443     1.000739096849    -0.134173097930
C            0.830481502562    -1.131984632553     0.055685435606
H            1.087112126804    -1.065347645239     1.116337429730
H            1.483713584323    -1.898073637637    -0.374623232690
C           -0.622548490580    -1.592690930712    -0.058536339167
H           -0.874812612652    -1.743897057817    -1.113034940199
H           -0.705798916656    -2.570934618906     0.419769920153
C           -1.636293086514    -0.626127804320     0.569390349592
H           -2.442634917195    -1.192296250747     1.043250644676
H           -1.149854409336    -0.062348028768     1.373103468744
}

set globals {
  reference rhf
  g_convergence gau_verytight
  basis aug-cc-pvtz
  freeze_core true
  scf_type df
  mp_type df
}
optimize('mp2')
--------------------------------------------------------------------------

    Molecular point group: c1
  Charge       = 0
  Multiplicity = 1
  Basis Set: AUG-CC-PVTZ
  Basis Set:
  @DF-RHF Final Energy:  -313.53899134433482
    Total Energy =                       -313.5389913443345904
  Basis Set:
    Molecular point group: c1
  Basis Set: AUG-CC-PVTZ
  Basis Set:
  Basis Set:
	 Reference Energy          =    -313.5389913443348178 [Eh]
	 Singles Energy            =      -0.0000000000000000 [Eh]
	 Same-Spin Energy          =      -0.3162870186866177 [Eh]
	 Opposite-Spin Energy      =      -1.1255832363665617 [Eh]
	 Correlation Energy        =      -1.4418702550531792 [Eh]
	 Total Energy              =    -314.9808615993879926 [Eh]
	 SCS Total Energy          =    -314.9951202342035685 [Eh]
  Basis Set: AUG-CC-PVTZ
  Basis Set:
  @DF-RHF Final Energy:  -313.53899179075012
    Total Energy =                       -313.5389917907505151
  Basis Set:
  Basis Set: AUG-CC-PVTZ
  Basis Set:
  @DF-RHF Final Energy:  -313.53899169610787
    Total Energy =                       -313.5389916961080417
  @DF-RHF Final Energy:  -313.53899152657635
    Total Energy =                       -313.5389915265765239
  @DF-RHF Final Energy:  -313.53899221174839
    Total Energy =                       -313.5389922117482229
  @DF-RHF Final Energy:  -313.53899160903939
    Total Energy =                       -313.5389916090397264
  @DF-RHF Final Energy:  -313.53899153268731
    Total Energy =                       -313.5389915326873052
  @DF-RHF Final Energy:  -313.53899162296483
    Total Energy =                       -313.5389916229649430
  @DF-RHF Final Energy:  -313.53899159199142
    Total Energy =                       -313.5389915919914188
  @DF-RHF Final Energy:  -313.53899162412881
    Total Energy =                       -313.5389916241289257
  @DF-RHF Final Energy:  -313.53899156685890
    Total Energy =                       -313.5389915668588401
  @DF-RHF Final Energy:  -313.53899160460594
    Total Energy =                       -313.5389916046055987
  @DF-RHF Final Energy:  -313.53899152560621
    Total Energy =                       -313.5389915256063773
  @DF-RHF Final Energy:  -313.53899150032413
    Total Energy =                       -313.5389915003237320
	 Singles Energy            =      -0.0000000000000001 [Eh]
	 Same-Spin Energy          =      -0.3162869616849672 [Eh]
	 Opposite-Spin Energy      =      -1.1255831354828838 [Eh]
	 Correlation Energy        =      -1.4418700971678509 [Eh]
	 Total Energy              =    -314.9808615974919803 [Eh]
	 SCS Total Energy          =    -314.9951202501318903 [Eh]
  Charge       = 0
  Multiplicity = 1
  Basis Set: AUG-CC-PVTZ
  Basis Set:

    Orbital Energies (a.u.)
    -----------------------

    Doubly Occupied:

       1A    -11.213042     2A    -11.211101     3A    -11.210785
       4A    -11.210477     5A    -11.210031     6A    -11.209788
       7A    -11.206876     8A    -11.206604     9A     -1.093973
      10A     -1.059186    11A     -1.009778    12A     -0.944689
      13A     -0.888375    14A     -0.825148    15A     -0.786122
      16A     -0.763486    17A     -0.645175    18A     -0.628776
      19A     -0.606107    20A     -0.590472    21A     -0.585353
      22A     -0.563351    23A     -0.540986    24A     -0.532214
      25A     -0.510403    26A     -0.501942    27A     -0.490777
      28A     -0.473756    29A     -0.467112    30A     -0.461184
      31A     -0.449969    32A     -0.435523    33A     -0.432615

  @DF-RHF Final Energy:  -313.53899152391659

   => Energetics <=

    Nuclear Repulsion Energy =            395.3724103827810268
    One-Electron Energy =               -1205.8924544436215456
    Two-Electron Energy =                 496.9810525369241532
    DFT Exchange-Correlation Energy =       0.0000000000000000
    Empirical Dispersion Energy =           0.0000000000000000
    PCM Polarization Energy =               0.0000000000000000
    EFP Energy =                            0.0000000000000000
    Total Energy =                       -313.5389915239163656
  Basis Set:
    Molecular point group: c1
  Basis Set: AUG-CC-PVTZ
  Basis Set:
  Basis Set:
	 Reference Energy          =    -313.5389915239165930 [Eh]
	 Singles Energy            =      -0.0000000000000002 [Eh]
	 Same-Spin Energy          =      -0.3162869578048644 [Eh]
	 Opposite-Spin Energy      =      -1.1255831158288441 [Eh]
	 Correlation Energy        =      -1.4418700736337087 [Eh]
	 Total Energy              =    -314.9808615975503017 [Eh]

	 ================> DF-SCS-MP2 Energies <==================
	-----------------------------------------------------------
	 SCS Same-Spin Scale       =       0.3333333333333333 [-]
	 SCS Opposite-Spin Scale   =       1.2000000000000000 [-]
	 SCS Same-Spin Energy      =      -0.1054289859349548 [Eh]
	 SCS Opposite-Spin Energy  =      -1.3506997389946129 [Eh]
	 SCS Correlation Energy    =      -1.4561287249295680 [Eh]
	 SCS Total Energy          =    -314.9951202488461490 [Eh]
	-----------------------------------------------------------

  -Total Gradient:
     Atom            X                  Y                   Z
    ------   -----------------  -----------------  -----------------
       1       -0.000000022230    -0.000000016267    -0.000000045889
       2        0.000000058423     0.000000029584    -0.000000028569
       3       -0.000000000198    -0.000000030255     0.000000028193
       4       -0.000000038107     0.000000064347     0.000000058201
       5       -0.000000096556    -0.000000117517    -0.000000005323
       6        0.000000016507     0.000000010779     0.000000001798
       7       -0.000000028898     0.000000028836    -0.000000026662
       8        0.000000043464     0.000000030161     0.000000055767
       9        0.000000009278    -0.000000060648     0.000000203674
      10        0.000000067671    -0.000000088946    -0.000000054416
      11        0.000000028900     0.000000141539    -0.000000071818
      12        0.000000111152     0.000000190206    -0.000000108375
      13        0.000000088246     0.000000066028     0.000000131706
      14       -0.000000029481    -0.000000091378    -0.000000021095
      15        0.000000115899     0.000000063948    -0.000000104495
      16       -0.000000050573    -0.000000039417    -0.000000139787
      17       -0.000000115004     0.000000080398     0.000000087699
      18        0.000000052566    -0.000000040875     0.000000099608
      19       -0.000000002509    -0.000000016926    -0.000000042784
      20       -0.000000023240     0.000000050779     0.000000025295
      21       -0.000000155091    -0.000000258195    -0.000000145900
      22       -0.000000008611    -0.000000025791     0.000000202183
      23        0.000000024403     0.000000173452    -0.000000107612
      24       -0.000000227866    -0.000000283648     0.000000178637
      25        0.000000209800     0.000000099540    -0.000000089018
      26       -0.000000027953     0.000000040266    -0.000000081019

  **** Optimization is complete! (in 15 steps) ****
    Final optimized geometry and variables:
    Molecular point group: c1

    Geometry (in Angstrom), charge = 0, multiplicity = 1:

    C            3.179731225736     0.771469509930     0.771043443915
    H            4.215303895040     1.108043901412     0.728465421357
    H            3.155387109512    -0.146360542098     1.357016125512
    H            2.604055497410     1.526741577418     1.309116211129
    C           -3.216941492902     1.325645469736     0.262186306669
    H           -4.010263688018     0.792158462777     0.787696319823
    H           -3.684073528235     2.001042420608    -0.454166782152
    H           -2.683400952322     1.931481400087     0.995938260667
    C            2.611255194087     0.560057300126    -0.628286287347
    H            3.171408504463    -0.229297233040    -1.137208506363
    H            2.755168281664     1.470293731007    -1.214636684656
    C           -2.268936503832     0.348058254891    -0.420733901575
    H           -2.811307261640    -0.226519199051    -1.176403158990
    H           -1.491388021045     0.898189651467    -0.952776862855
    C            1.127105353005     0.198747667902    -0.627544777983
    H            0.765880912375     0.154566136789    -1.659423311536
    H            0.569796032101     1.000746496987    -0.134148807985
    C            0.830480630297    -1.131976323510     0.055695082173
    H            1.087109386253    -1.065338919901     1.116346981443
    H            1.483716474086    -1.898061230697    -0.374611843348
    C           -0.622547779300    -1.592689059145    -0.058534584162
    H           -0.874805766760    -1.743892708183    -1.113035030408
    H           -0.705793864736    -2.570936374826     0.419764777636
    C           -1.636305076677    -0.626134855817     0.569388590625
    H           -2.442653245880    -1.192309131994     1.043230308912
    H           -1.149880446929    -0.062363610473     1.373115849444

*** Psi4 exiting successfully. Buy a developer a beer!
