                              Psi4 1.0.0 Driver

  ==> Input File <==

--------------------------------------------------------------------------
memory 30 Gb

molecule molecule_65_psi {
0 1
C            2.549418370049    -1.481437237873    -0.040408485941
H            1.949648944678    -1.572971917828    -0.945804730604
H            1.965258962252    -1.882147227731     0.789706906762
H            3.430996178696    -2.110372187562    -0.163914742497
C           -3.463804402944    -0.631247656004    -0.484967496792
H           -2.895715382451    -1.172438376817    -1.240552038904
H           -3.839677006202     0.285555144717    -0.942564552733
H           -4.321820751157    -1.246023187183    -0.214089262140
C            2.944620855858    -0.032738890000     0.222902327920
H            3.519204305442     0.345139059867    -0.627387738221
H            3.610454781840     0.006489886654     1.088242166878
C           -2.608338594771    -0.310179661344     0.736016706102
H           -3.238959374411     0.132321260780     1.510383957225
H           -2.206084538156    -1.236678699635     1.155344137973
C            1.758926763031     0.900702441318     0.465651786263
H            2.147145316913     1.895713766942     0.692394105562
H            1.223174216862     0.571815834466     1.361285332949
C            0.784853501902     0.977366145575    -0.720285754076
H            1.324480085883     0.718583680550    -1.636081921571
H            0.440167449615     2.006347997441    -0.853210900193
C           -0.448897143759     0.083198777633    -0.574015741844
H           -0.932236491665    -0.025482589094    -1.547383061331
H           -0.146647994807    -0.919686130172    -0.259497967700
C           -1.453025300154     0.640243056052     0.430808363924
H           -0.936065800889     0.882341245350     1.363065488950
H           -1.852431444300     1.584203079945     0.044970727828
}

set globals {
  reference rhf
  g_convergence gau_verytight
  basis aug-cc-pvtz
  freeze_core true
  scf_type df
  mp_type df
}
optimize('mp2')
--------------------------------------------------------------------------

    Molecular point group: c1
  Charge       = 0
  Multiplicity = 1
  Basis Set: AUG-CC-PVTZ
  Basis Set:
  @DF-RHF Final Energy:  -313.53701192418447
    Total Energy =                       -313.5370119241844122
  Basis Set:
    Molecular point group: c1
  Basis Set: AUG-CC-PVTZ
  Basis Set:
  Basis Set:
	 Reference Energy          =    -313.5370119241844691 [Eh]
	 Singles Energy            =      -0.0000000000000000 [Eh]
	 Same-Spin Energy          =      -0.3166766561690406 [Eh]
	 Opposite-Spin Energy      =      -1.1261406027404677 [Eh]
	 Correlation Energy        =      -1.4428172589095083 [Eh]
	 Total Energy              =    -314.9798291830939547 [Eh]
	 SCS Total Energy          =    -314.9939395328627256 [Eh]
  Basis Set: AUG-CC-PVTZ
  Basis Set:
  @DF-RHF Final Energy:  -313.53701162884278
    Total Energy =                       -313.5370116288425493
  Basis Set:
  Basis Set: AUG-CC-PVTZ
  Basis Set:
  @DF-RHF Final Energy:  -313.53701165678643
    Total Energy =                       -313.5370116567861487
  @DF-RHF Final Energy:  -313.53701187438310
    Total Energy =                       -313.5370118743830972
  @DF-RHF Final Energy:  -313.53701204307390
    Total Energy =                       -313.5370120430737302
  @DF-RHF Final Energy:  -313.53701186594401
    Total Energy =                       -313.5370118659441800
  @DF-RHF Final Energy:  -313.53701188870053
    Total Energy =                       -313.5370118887001354
  @DF-RHF Final Energy:  -313.53701187547904
    Total Energy =                       -313.5370118754791520
  @DF-RHF Final Energy:  -313.53701182614589
    Total Energy =                       -313.5370118261458288
  @DF-RHF Final Energy:  -313.53701160120437
    Total Energy =                       -313.5370116012041990
  @DF-RHF Final Energy:  -313.53701179218251
    Total Energy =                       -313.5370117921826250
  @DF-RHF Final Energy:  -313.53701186575978
    Total Energy =                       -313.5370118657597800
  @DF-RHF Final Energy:  -313.53701190418758
    Total Energy =                       -313.5370119041874659
  @DF-RHF Final Energy:  -313.53701192765232
    Total Energy =                       -313.5370119276520882
  @DF-RHF Final Energy:  -313.53701195045443
    Total Energy =                       -313.5370119504542004
  @DF-RHF Final Energy:  -313.53701191570667
    Total Energy =                       -313.5370119157065574
  @DF-RHF Final Energy:  -313.53701189725791
    Total Energy =                       -313.5370118972580258
  @DF-RHF Final Energy:  -313.53701191968946
    Total Energy =                       -313.5370119196894620
  @DF-RHF Final Energy:  -313.53701185031770
    Total Energy =                       -313.5370118503175263
  @DF-RHF Final Energy:  -313.53701184386603
    Total Energy =                       -313.5370118438658551
  @DF-RHF Final Energy:  -313.53701181496825
    Total Energy =                       -313.5370118149681957
  @DF-RHF Final Energy:  -313.53701167321395
    Total Energy =                       -313.5370116732134989
  @DF-RHF Final Energy:  -313.53701181218526
    Total Energy =                       -313.5370118121847440
  @DF-RHF Final Energy:  -313.53701186382608
    Total Energy =                       -313.5370118638257395
  @DF-RHF Final Energy:  -313.53701189889114
    Total Energy =                       -313.5370118988907961
  @DF-RHF Final Energy:  -313.53701190772944
    Total Energy =                       -313.5370119077295499
  @DF-RHF Final Energy:  -313.53701189481984
    Total Energy =                       -313.5370118948196705
  @DF-RHF Final Energy:  -313.53701194317642
    Total Energy =                       -313.5370119431765943
  @DF-RHF Final Energy:  -313.53701191881913
    Total Energy =                       -313.5370119188190756
  @DF-RHF Final Energy:  -313.53701182184710
    Total Energy =                       -313.5370118218470452
  @DF-RHF Final Energy:  -313.53701190284011
    Total Energy =                       -313.5370119028401632
  @DF-RHF Final Energy:  -313.53701190622724
    Total Energy =                       -313.5370119062272352
	 Singles Energy            =      -0.0000000000000004 [Eh]
	 Same-Spin Energy          =      -0.3166766612350366 [Eh]
	 Opposite-Spin Energy      =      -1.1261406160277243 [Eh]
	 Correlation Energy        =      -1.4428172772627614 [Eh]
	 Total Energy              =    -314.9798291834899828 [Eh]
	 SCS Total Energy          =    -314.9939395325388318 [Eh]
  Charge       = 0
  Multiplicity = 1
  Basis Set: AUG-CC-PVTZ
  Basis Set:

    Orbital Energies (a.u.)
    -----------------------

    Doubly Occupied:

       1A    -11.213092     2A    -11.212568     3A    -11.210535
       4A    -11.209883     5A    -11.209520     6A    -11.208620
       7A    -11.207028     8A    -11.206246     9A     -1.093892
      10A     -1.059930    11A     -1.006012    12A     -0.943743
      13A     -0.893033    14A     -0.827657    15A     -0.783327
      16A     -0.759564    17A     -0.636042    18A     -0.631103
      19A     -0.618544    20A     -0.596946    21A     -0.569960
      22A     -0.568019    23A     -0.542239    24A     -0.528849
      25A     -0.511843    26A     -0.504792    27A     -0.495497
      28A     -0.469685    29A     -0.463495    30A     -0.462151
      31A     -0.443527    32A     -0.436841    33A     -0.435204

  @DF-RHF Final Energy:  -313.53701191362154

   => Energetics <=

    Nuclear Repulsion Energy =            396.4591395011657369
    One-Electron Energy =               -1208.0735259725058768
    Two-Electron Energy =                 498.0773745577187128
    DFT Exchange-Correlation Energy =       0.0000000000000000
    Empirical Dispersion Energy =           0.0000000000000000
    PCM Polarization Energy =               0.0000000000000000
    EFP Energy =                            0.0000000000000000
    Total Energy =                       -313.5370119136214271
  Basis Set:
    Molecular point group: c1
  Basis Set: AUG-CC-PVTZ
  Basis Set:
  Basis Set:
	 Reference Energy          =    -313.5370119136215408 [Eh]
	 Singles Energy            =      -0.0000000000000005 [Eh]
	 Same-Spin Energy          =      -0.3166766608819560 [Eh]
	 Opposite-Spin Energy      =      -1.1261406078529725 [Eh]
	 Correlation Energy        =      -1.4428172687349290 [Eh]
	 Total Energy              =    -314.9798291823564682 [Eh]

	 ================> DF-SCS-MP2 Energies <==================
	-----------------------------------------------------------
	 SCS Same-Spin Scale       =       0.3333333333333333 [-]
	 SCS Opposite-Spin Scale   =       1.2000000000000000 [-]
	 SCS Same-Spin Energy      =      -0.1055588869606520 [Eh]
	 SCS Opposite-Spin Energy  =      -1.3513687294235670 [Eh]
	 SCS Correlation Energy    =      -1.4569276163842195 [Eh]
	 SCS Total Energy          =    -314.9939395300057754 [Eh]
	-----------------------------------------------------------

  -Total Gradient:
     Atom            X                  Y                   Z
    ------   -----------------  -----------------  -----------------
       1        0.000000093987     0.000000339472    -0.000000009459
       2       -0.000000332904    -0.000000085735    -0.000000395114
       3       -0.000000243877    -0.000000226513     0.000000307501
       4        0.000000245102    -0.000000106629    -0.000000070572
       5        0.000000364129     0.000000207337     0.000000446725
       6        0.000000283889    -0.000000242263    -0.000000453111
       7       -0.000000227349     0.000000452325    -0.000000322368
       8       -0.000000302648    -0.000000240628     0.000000160885
       9       -0.000000411159    -0.000000131492     0.000000170786
      10        0.000000200391     0.000000113220    -0.000000269391
      11        0.000000128481     0.000000036757     0.000000224844
      12        0.000000019790     0.000000265358    -0.000000897798
      13       -0.000000421930     0.000000270452     0.000000439294
      14        0.000000265612    -0.000000738461     0.000000306502
      15        0.000000477125    -0.000000057655    -0.000000567297
      16       -0.000000028747     0.000000305516    -0.000000056707
      17       -0.000000312513    -0.000000115656     0.000000571550
      18        0.000000691231    -0.000000488742     0.000000984982
      19        0.000000438757    -0.000000147959    -0.000000578121
      20       -0.000000409260     0.000000621507    -0.000000051901
      21       -0.000000216305     0.000000833984     0.000000296061
      22       -0.000000392419    -0.000000032546    -0.000000876162
      23        0.000000482711    -0.000001230798     0.000000081253
      24       -0.000000278245    -0.000000765305    -0.000000082360
      25        0.000000543691     0.000000176393     0.000000981499
      26       -0.000000657538     0.000000988061    -0.000000341519

  **** Optimization is complete! (in 33 steps) ****
    Final optimized geometry and variables:
    Molecular point group: c1

    Geometry (in Angstrom), charge = 0, multiplicity = 1:

    C            2.549418593387    -1.481437667728    -0.040411134162
    H            1.949649823499    -1.572970807223    -0.945808080652
    H            1.965258601264    -1.882149549935     0.789703033861
    H            3.430996855656    -2.110372040755    -0.163917903778
    C           -3.463803135738    -0.631249665804    -0.484966631465
    H           -2.895712471757    -1.172440740259    -1.240549630932
    H           -3.839677210256     0.285551432545    -0.942565782026
    H           -4.321818438754    -1.246026358431    -0.214087801118
    C            2.944620511517    -0.032739682973     0.222902852041
    H            3.519204832353     0.345140077820    -0.627385958300
    H            3.610453593139     0.006487399267     1.088243556646
    C           -2.608338707778    -0.310177353004     0.736017403794
    H           -3.238960409506     0.132325429151     1.510382775968
    H           -2.206084385839    -1.236674794063     1.155347896170
    C            1.758926079327     0.900701180594     0.465653065770
    H            2.147144486695     1.895712107904     0.692397274382
    H            1.223172897865     0.571813053161     1.361285669009
    C            0.784853512220     0.977366286292    -0.720284968115
    H            1.324480551109     0.718584511431    -1.636081087427
    H            0.440167667932     2.006348239807    -0.853209501216
    C           -0.448897255827     0.083199035652    -0.574015776099
    H           -0.932235786196    -0.025483420800    -1.547383314137
    H           -0.146648713109    -0.919685409917    -0.259496254260
    C           -1.453025724243     0.640245016972     0.430806936799
    H           -0.936066224008     0.882345534645     1.363063415335
    H           -1.852432112220     1.584203896860     0.044967088614

*** Psi4 exiting successfully. Buy a developer a beer!
