                              Psi4 1.0.0 Driver

  ==> Input File <==

--------------------------------------------------------------------------
memory 60 Gb

molecule molecule_54_psi {
0 1
C            3.334478168405     0.694418973462    -0.665759004146
H            4.173265400207     0.078059103537    -0.338987409986
H            3.720687956956     1.682526318694    -0.915044714317
H            2.937244610674     0.254330982633    -1.580599145733
C           -3.546044107064     0.157556319939    -0.701676067569
H           -3.293544590870     0.659508607019    -1.637256711767
H           -4.591987578321     0.369163494462    -0.480737914603
H           -3.455340806026    -0.915603764341    -0.863796611275
C            2.271496319380     0.771635193461     0.425029793701
H            1.466845088568     1.436967125084     0.106088314024
H            2.711222294225     1.219020956585     1.319465954242
C           -2.638226083297     0.637252452589     0.426010381035
H           -2.839546207782     1.692962425419     0.620949480860
H           -2.881075888543     0.100726824283     1.347553407392
C            1.697177094591    -0.602394124025     0.776730137527
H            1.151691055630    -0.544476025068     1.723252983186
H            2.535670431331    -1.282010430528     0.951221727679
C            0.765545988481    -1.187310575033    -0.296386259700
H            0.954779286576    -2.256828138951    -0.408312294960
H            0.992381839658    -0.736716428775    -1.267124967641
C           -0.720763277332    -0.993995517188     0.005980617074
H           -1.303181460086    -1.483824628234    -0.777689082819
H           -0.961911152894    -1.509351076024     0.942142985486
C           -1.150092353861     0.463973767215     0.126050215906
H           -0.573155717598     0.945507397694     0.919076338292
H           -0.905641055603     0.990914980800    -0.803017538391
}

set globals {
  reference rhf
  g_convergence gau_verytight
  basis aug-cc-pvtz
  freeze_core true
  scf_type df
  mp_type df
}
optimize('mp2')
--------------------------------------------------------------------------

    Molecular point group: c1
  Charge       = 0
  Multiplicity = 1
  Basis Set: AUG-CC-PVTZ
  Basis Set:
  @DF-RHF Final Energy:  -313.53692797889545
    Total Energy =                       -313.5369279788953918
  Basis Set:
    Molecular point group: c1
  Basis Set: AUG-CC-PVTZ
  Basis Set:
  Basis Set:
	 Reference Energy          =    -313.5369279788954486 [Eh]
	 Singles Energy            =      -0.0000000000000000 [Eh]
	 Same-Spin Energy          =      -0.3166619563275558 [Eh]
	 Opposite-Spin Energy      =      -1.1261083460116530 [Eh]
	 Correlation Energy        =      -1.4427703023392087 [Eh]
	 Total Energy              =    -314.9796982812346755 [Eh]
	 SCS Total Energy          =    -314.9938119795519356 [Eh]
  Basis Set: AUG-CC-PVTZ
  Basis Set:
  @DF-RHF Final Energy:  -313.53692846136965
    Total Energy =                       -313.5369284613695413
  Basis Set:
  Basis Set: AUG-CC-PVTZ
  Basis Set:
  @DF-RHF Final Energy:  -313.53692810049813
    Total Energy =                       -313.5369281004982440
  @DF-RHF Final Energy:  -313.53692813003209
    Total Energy =                       -313.5369281300320381
  @DF-RHF Final Energy:  -313.53692822205198
    Total Energy =                       -313.5369282220518130
  @DF-RHF Final Energy:  -313.53692804161949
    Total Energy =                       -313.5369280416193760
  @DF-RHF Final Energy:  -313.53692814116050
    Total Energy =                       -313.5369281411605584
  @DF-RHF Final Energy:  -313.53692814898199
    Total Energy =                       -313.5369281489819286
  @DF-RHF Final Energy:  -313.53692803408785
    Total Energy =                       -313.5369280340881915
  @DF-RHF Final Energy:  -313.53692817159674
    Total Energy =                       -313.5369281715969692
  @DF-RHF Final Energy:  -313.53692805728542
    Total Energy =                       -313.5369280572853086
  @DF-RHF Final Energy:  -313.53692809528883
    Total Energy =                       -313.5369280952885447
  @DF-RHF Final Energy:  -313.53692806172484
    Total Energy =                       -313.5369280617247796
  @DF-RHF Final Energy:  -313.53692804028668
    Total Energy =                       -313.5369280402865115
  @DF-RHF Final Energy:  -313.53692799306867
    Total Energy =                       -313.5369279930687867
  @DF-RHF Final Energy:  -313.53692807877292
    Total Energy =                       -313.5369280787729167
  @DF-RHF Final Energy:  -313.53692804853841
    Total Energy =                       -313.5369280485384706
  @DF-RHF Final Energy:  -313.53692808837485
    Total Energy =                       -313.5369280883751344
	 Singles Energy            =      -0.0000000000000004 [Eh]
	 Same-Spin Energy          =      -0.3166619612749132 [Eh]
	 Opposite-Spin Energy      =      -1.1261082299046574 [Eh]
	 Correlation Energy        =      -1.4427701911795712 [Eh]
	 Total Energy              =    -314.9796982795544409 [Eh]
	 SCS Total Energy          =    -314.9938119513520860 [Eh]
  Charge       = 0
  Multiplicity = 1
  Basis Set: AUG-CC-PVTZ
  Basis Set:

    Orbital Energies (a.u.)
    -----------------------

    Doubly Occupied:

       1A    -11.212995     2A    -11.211808     3A    -11.210516
       4A    -11.210265     5A    -11.209896     6A    -11.209517
       7A    -11.206596     8A    -11.206230     9A     -1.094095
      10A     -1.058989    11A     -1.007767    12A     -0.942328
      13A     -0.892269    14A     -0.830866    15A     -0.779545
      16A     -0.761590    17A     -0.644178    18A     -0.625081
      19A     -0.612547    20A     -0.593573    21A     -0.585689
      22A     -0.558926    23A     -0.545375    24A     -0.529336
      25A     -0.514674    26A     -0.499778    27A     -0.485252
      28A     -0.475425    29A     -0.467773    30A     -0.461316
      31A     -0.449121    32A     -0.435010    33A     -0.432166

  @DF-RHF Final Energy:  -313.53692802180558

   => Energetics <=

    Nuclear Repulsion Energy =            395.8040502945834760
    One-Electron Energy =               -1206.7609745634119918
    Two-Electron Energy =                 497.4199962470230503
    DFT Exchange-Correlation Energy =       0.0000000000000000
    Empirical Dispersion Energy =           0.0000000000000000
    PCM Polarization Energy =               0.0000000000000000
    EFP Energy =                            0.0000000000000000
    Total Energy =                       -313.5369280218054655
  Basis Set:
    Molecular point group: c1
  Basis Set: AUG-CC-PVTZ
  Basis Set:
  Basis Set:
	 Reference Energy          =    -313.5369280218055792 [Eh]
	 Singles Energy            =      -0.0000000000000000 [Eh]
	 Same-Spin Energy          =      -0.3166619693258338 [Eh]
	 Opposite-Spin Energy      =      -1.1261082921557151 [Eh]
	 Correlation Energy        =      -1.4427702614815487 [Eh]
	 Total Energy              =    -314.9796982832871208 [Eh]

	 ================> DF-SCS-MP2 Energies <==================
	-----------------------------------------------------------
	 SCS Same-Spin Scale       =       0.3333333333333333 [-]
	 SCS Opposite-Spin Scale   =       1.2000000000000000 [-]
	 SCS Same-Spin Energy      =      -0.1055539897752779 [Eh]
	 SCS Opposite-Spin Energy  =      -1.3513299505868581 [Eh]
	 SCS Correlation Energy    =      -1.4568839403621361 [Eh]
	 SCS Total Energy          =    -314.9938119621677401 [Eh]
	-----------------------------------------------------------

  -Total Gradient:
     Atom            X                  Y                   Z
    ------   -----------------  -----------------  -----------------
       1        0.000000024320     0.000000009285    -0.000000002251
       2       -0.000000026052     0.000000009205    -0.000000015368
       3       -0.000000013825    -0.000000001973    -0.000000025738
       4       -0.000000016858    -0.000000015477    -0.000000026776
       5       -0.000000015834    -0.000000075788    -0.000000018502
       6       -0.000000000548    -0.000000005307     0.000000003526
       7        0.000000033939    -0.000000021524    -0.000000016479
       8        0.000000007841     0.000000057546     0.000000020169
       9       -0.000000020909     0.000000050042     0.000000022205
      10        0.000000004964     0.000000010132     0.000000032831
      11       -0.000000032611     0.000000002651    -0.000000058771
      12       -0.000000191925    -0.000000185149     0.000000145249
      13       -0.000000014575     0.000000016906     0.000000004012
      14        0.000000015826     0.000000044443    -0.000000056884
      15        0.000000058192    -0.000000003768     0.000000094582
      16        0.000000000310    -0.000000016240    -0.000000010814
      17        0.000000000893     0.000000011093     0.000000014607
      18       -0.000000009470    -0.000000041345     0.000000086347
      19        0.000000007087    -0.000000029614     0.000000024771
      20        0.000000055114     0.000000002803    -0.000000102865
      21       -0.000000013363     0.000000057420     0.000000007478
      22       -0.000000004058    -0.000000061422    -0.000000018323
      23       -0.000000013464    -0.000000014398     0.000000008523
      24        0.000000060749     0.000000003138    -0.000000059515
      25        0.000000106196     0.000000084997     0.000000144377
      26       -0.000000001944     0.000000112343    -0.000000196395

  **** Optimization is complete! (in 19 steps) ****
    Final optimized geometry and variables:
    Molecular point group: c1

    Geometry (in Angstrom), charge = 0, multiplicity = 1:

    C            3.334490269897     0.694412385794    -0.665747359346
    H            4.173273087617     0.078052721757    -0.338964868862
    H            3.720704193991     1.682517227078    -0.915035776042
    H            2.937263298625     0.254319601310    -1.580587895662
    C           -3.546052270787     0.157547521337    -0.701661513730
    H           -3.293561501954     0.659492650810    -1.637247684360
    H           -4.591993647121     0.369154670520    -0.480716195751
    H           -3.455348452287    -0.915613097515    -0.863773989846
    C            2.271499031014     0.771636024490     0.425031845266
    H            1.466852942214     1.436969348359     0.106081381951
    H            2.711218119977     1.219022672074     1.319470437872
    C           -2.638224579191     0.637253301219     0.426012928485
    H           -2.839544520312     1.692963602546     0.620947025172
    H           -2.881063872993     0.100733521284     1.347561230850
    C            1.697171500076    -0.602390940463     0.776728899168
    H            1.151678371759    -0.544470222717     1.723247079520
    H            2.535660454990    -1.282010496813     0.951227787487
    C            0.765545853423    -1.187303155150    -0.296395346290
    H            0.954782142407    -2.256818930968    -0.408329349830
    H            0.992381955621    -0.736700487825    -1.267129559649
    C           -0.720764503427    -0.993993240185     0.005969170307
    H           -1.303180180627    -1.483821981793    -0.777701639043
    H           -0.961912967447    -1.509349577965     0.942129883938
    C           -1.150093828433     0.463975626522     0.126039511246
    H           -0.573150816248     0.945511308761     0.919058730157
    H           -0.905651807127     0.990912893913    -0.803031809989

*** Psi4 exiting successfully. Buy a developer a beer!
