                              Psi4 1.0.0 Driver

  ==> Input File <==

--------------------------------------------------------------------------
memory 30 Gb

molecule molecule_88_psi {
0 1
symmetry c1
    C            2.289410587679    -0.114587970961    -1.756632958590
    H            1.729246654047    -0.991722922274    -2.077417252190
    H            3.293595761059    -0.442957646863    -1.492324845399
    H            2.367637508801     0.563201643091    -2.603631441533
    C           -2.289410394882     0.114594208965    -1.756630675768
    H           -2.367640001126    -0.563194666899    -2.603629897000
    H           -1.729242656983     0.991727175089    -2.077414417448
    H           -3.293594595411     0.442967687489    -1.492322377382
    C            1.611408289111     0.544068130825    -0.570215922419
    H            0.610782525155     0.863890802805    -0.853298739344
    H            2.152856842276     1.447999816650    -0.285737231732
    C           -1.611410431355    -0.544066666678    -0.570214383246
    H           -2.152863370552    -1.447996920471    -0.285737342188
    H           -0.610785429633    -0.863892702063    -0.853298324669
    C            1.551291631425    -0.379619267819     0.636068933183
    H            2.576983965998    -0.568342568564     0.958880721902
    H            1.149852406513    -1.350498950520     0.336817703953
    C            0.743839799567     0.165685475944     1.810833441867
    H            0.863177679344     1.251613552436     1.847859943893
    H            1.166293927997    -0.220173504279     2.739339407795
    C           -0.743838406515    -0.165691944172     1.810833695517
    H           -0.863176806952    -1.251620092167     1.847857189832
    H           -1.166291586332     0.220164480279     2.739340946272
    C           -1.551291094322     0.379617637804     0.636072658907
    H           -2.576982483305     0.568342345215     0.958886807291
    H           -1.149850111183     1.350497187238     0.336823485525
}

set globals {
  reference rhf
  g_convergence gau_verytight
  basis aug-cc-pvtz
  freeze_core true
  scf_type df
  mp_type df
}
optimize('mp2')
--------------------------------------------------------------------------

    Molecular point group: c1
  Charge       = 0
  Multiplicity = 1
  Basis Set: AUG-CC-PVTZ
  Basis Set:
  @DF-RHF Final Energy:  -313.53421065086491
    Total Energy =                       -313.5342106508650772
  Basis Set:
    Molecular point group: c1
  Basis Set: AUG-CC-PVTZ
  Basis Set:
  Basis Set:
	 Reference Energy          =    -313.5342106508649067 [Eh]
	 Singles Energy            =      -0.0000000000000000 [Eh]
	 Same-Spin Energy          =      -0.3179912867336394 [Eh]
	 Opposite-Spin Energy      =      -1.1269832140646234 [Eh]
	 Correlation Energy        =      -1.4449745007982628 [Eh]
	 Total Energy              =    -314.9791851516631596 [Eh]
	 SCS Total Energy          =    -314.9925876033203167 [Eh]
  Basis Set: AUG-CC-PVTZ
  Basis Set:
  @DF-RHF Final Energy:  -313.53457894563297
    Total Energy =                       -313.5345789456328021
  Basis Set:
  Basis Set: AUG-CC-PVTZ
  Basis Set:
  @DF-RHF Final Energy:  -313.53459207438510
    Total Energy =                       -313.5345920743850456
  @DF-RHF Final Energy:  -313.53473388945184
    Total Energy =                       -313.5347338894521272
  @DF-RHF Final Energy:  -313.53481514919321
    Total Energy =                       -313.5348151491929798
  @DF-RHF Final Energy:  -313.53487034089665
    Total Energy =                       -313.5348703408972710
  @DF-RHF Final Energy:  -313.53487456112225
    Total Energy =                       -313.5348745611227628
  @DF-RHF Final Energy:  -313.53487507458976
    Total Energy =                       -313.5348750745896496
  @DF-RHF Final Energy:  -313.53487512345470
    Total Energy =                       -313.5348751234550946
  @DF-RHF Final Energy:  -313.53487493098055
    Total Energy =                       -313.5348749309808909
  @DF-RHF Final Energy:  -313.53487486429157
    Total Energy =                       -313.5348748642915098
  @DF-RHF Final Energy:  -313.53487538872332
    Total Energy =                       -313.5348753887230941
  @DF-RHF Final Energy:  -313.53487497612321
    Total Energy =                       -313.5348749761233762
  @DF-RHF Final Energy:  -313.53487516800391
    Total Energy =                       -313.5348751680040209
  @DF-RHF Final Energy:  -313.53487523938645
    Total Energy =                       -313.5348752393861105
  @DF-RHF Final Energy:  -313.53487511301194
    Total Energy =                       -313.5348751130121059
  @DF-RHF Final Energy:  -313.53487496565327
    Total Energy =                       -313.5348749656533300
  @DF-RHF Final Energy:  -313.53487509221435
    Total Energy =                       -313.5348750922145200
  @DF-RHF Final Energy:  -313.53487519714508
    Total Energy =                       -313.5348751971450270
  @DF-RHF Final Energy:  -313.53487521616904
    Total Energy =                       -313.5348752161686434
  @DF-RHF Final Energy:  -313.53487553742315
    Total Energy =                       -313.5348755374231473
	 Singles Energy            =      -0.0000000000000000 [Eh]
	 Same-Spin Energy          =      -0.3174354540374017 [Eh]
	 Opposite-Spin Energy      =      -1.1271543675148492 [Eh]
	 Correlation Energy        =      -1.4445898215522508 [Eh]
	 Total Energy              =    -314.9794653589754034 [Eh]
	 SCS Total Energy          =    -314.9932725964534370 [Eh]
  Charge       = 0
  Multiplicity = 1
  Basis Set: AUG-CC-PVTZ
  Basis Set:

    Orbital Energies (a.u.)
    -----------------------

    Doubly Occupied:

       1A    -11.211768     2A    -11.211750     3A    -11.211576
       4A    -11.211073     5A    -11.210430     6A    -11.210351
       7A    -11.207541     8A    -11.207541     9A     -1.093746
      10A     -1.056656    11A     -1.013137    12A     -0.948522
      13A     -0.885134    14A     -0.820898    15A     -0.788909
      16A     -0.768830    17A     -0.656699    18A     -0.614153
      19A     -0.602210    20A     -0.598701    21A     -0.576408
      22A     -0.556825    23A     -0.555224    24A     -0.530311
      25A     -0.521940    26A     -0.501170    27A     -0.482806
      28A     -0.471378    29A     -0.468516    30A     -0.462277
      31A     -0.453714    32A     -0.433697    33A     -0.431733

  @DF-RHF Final Energy:  -313.53487514621145

   => Energetics <=

    Nuclear Repulsion Energy =            406.0701449961012486
    One-Electron Energy =               -1227.2587915301805879
    Two-Electron Energy =                 507.6537713878677778
    DFT Exchange-Correlation Energy =       0.0000000000000000
    Empirical Dispersion Energy =           0.0000000000000000
    PCM Polarization Energy =               0.0000000000000000
    EFP Energy =                            0.0000000000000000
    Total Energy =                       -313.5348751462115615
  Basis Set:
    Molecular point group: c1
  Basis Set: AUG-CC-PVTZ
  Basis Set:
  Basis Set:
	 Reference Energy          =    -313.5348751462114478 [Eh]
	 Singles Energy            =      -0.0000000000000005 [Eh]
	 Same-Spin Energy          =      -0.3174354877921641 [Eh]
	 Opposite-Spin Energy      =      -1.1271547277442990 [Eh]
	 Correlation Energy        =      -1.4445902155364636 [Eh]
	 Total Energy              =    -314.9794653617478843 [Eh]

	 ================> DF-SCS-MP2 Energies <==================
	-----------------------------------------------------------
	 SCS Same-Spin Scale       =       0.3333333333333333 [-]
	 SCS Opposite-Spin Scale   =       1.2000000000000000 [-]
	 SCS Same-Spin Energy      =      -0.1058118292640547 [Eh]
	 SCS Opposite-Spin Energy  =      -1.3525856732931587 [Eh]
	 SCS Correlation Energy    =      -1.4583975025572138 [Eh]
	 SCS Total Energy          =    -314.9932726487686523 [Eh]
	-----------------------------------------------------------

  -Total Gradient:
     Atom            X                  Y                   Z
    ------   -----------------  -----------------  -----------------
       1        0.000000054787    -0.000000192652     0.000000047083
       2        0.000000014666     0.000000053391     0.000000025664
       3       -0.000000034162     0.000000017626    -0.000000017696
       4       -0.000000021237     0.000000014697     0.000000021810
       5        0.000000095806    -0.000000141378     0.000000194384
       6       -0.000000005882    -0.000000100463    -0.000000112235
       7        0.000000109377     0.000000184007    -0.000000077889
       8       -0.000000217382     0.000000089089     0.000000039179
       9       -0.000000004271    -0.000000058549    -0.000000028920
      10       -0.000000085938    -0.000000035120    -0.000000030009
      11        0.000000069590     0.000000062454     0.000000107846
      12       -0.000000031439     0.000000186986    -0.000000082493
      13       -0.000000105050    -0.000000065413     0.000000068963
      14        0.000000232189    -0.000000090419    -0.000000037849
      15        0.000000085754    -0.000000063790    -0.000000376289
      16        0.000000145991    -0.000000036883    -0.000000039904
      17        0.000000050288    -0.000000093312    -0.000000182750
      18       -0.000000384700     0.000000110719     0.000000019468
      19        0.000000040586     0.000000466230     0.000000087227
      20        0.000000031239    -0.000000154581     0.000000330380
      21        0.000000125923    -0.000000188592    -0.000000065902
      22       -0.000000025165    -0.000000316931     0.000000072886
      23        0.000000015806     0.000000092377     0.000000219885
      24       -0.000000046105     0.000000073314    -0.000000024054
      25       -0.000000158123     0.000000039837     0.000000007184
      26        0.000000047448     0.000000147356    -0.000000165969

  **** Optimization is complete! (in 22 steps) ****
    Final optimized geometry and variables:
    Molecular point group: c1

    Geometry (in Angstrom), charge = 0, multiplicity = 1:

    C            2.351814046912    -0.114591201734    -1.751379082459
    H            1.808652829628    -0.997426064207    -2.092656121478
    H            3.355595098473    -0.433900754149    -1.467118289556
    H            2.442535085988     0.569819703239    -2.594565825629
    C           -2.351825198560     0.114580275680    -1.751370388849
    H           -2.442545803370    -0.569833389054    -2.594554551221
    H           -1.808674206728     0.997418867173    -2.092653327206
    H           -3.355606858241     0.433881719041    -1.467103674543
    C            1.636657762443     0.533525202802    -0.572859911291
    H            0.638684165738     0.849027315505    -0.879838860944
    H            2.164989226824     1.441977454326    -0.271148536487
    C           -1.636655377204    -0.533526243413    -0.572854518115
    H           -2.164976267221    -1.441981929357    -0.271136564131
    H           -0.638681773867    -0.849020487606    -0.879839471692
    C            1.555200035307    -0.401324478591     0.631468167719
    H            2.578881665059    -0.606322339402     0.957711100245
    H            1.140123828542    -1.366829157019     0.325245530026
    C            0.750111124585     0.153027744025     1.812175503748
    H            0.891930347351     1.237866633265     1.859229861396
    H            1.163410516538    -0.246944863222     2.741278130442
    C           -0.750104819180    -0.153018552062     1.812177794560
    H           -0.891923627034    -1.237857140728     1.859236586898
    H           -1.163402283867     0.246957529295     2.741279687807
    C           -1.555196787360     0.401328053243     0.631469880027
    H           -2.578877835959     0.606325301875     0.957714257225
    H           -1.140123477841     1.366832076166     0.325242592225

*** Psi4 exiting successfully. Buy a developer a beer!
