                              Psi4 1.0.0 Driver

  ==> Input File <==

--------------------------------------------------------------------------
memory 60 Gb

molecule molecule_66_psi {
0 1
C           -3.824396605929    -0.314024271291    -0.557208290932
H           -4.630051374534    -1.011676062008    -0.329818804001
H           -3.573704343343    -0.423575042452    -1.613074880161
H           -4.204969674652     0.697479068045    -0.410143870793
C            2.707776997429    -1.396229197971     0.133436382425
H            2.002065816898    -2.009946207317    -0.428919579035
H            2.311271638186    -1.269101874549     1.140602032463
H            3.642793819564    -1.950403781112     0.214823198276
C           -2.600897003446    -0.562378600279     0.316274772161
H           -2.248118385577    -1.587577922475     0.175430696579
H           -2.874806858364    -0.471710339824     1.370830632478
C            2.926971535016    -0.052976937269    -0.553461916991
H            3.627238065007     0.544535056732     0.036924754898
H            3.402519202922    -0.218554122567    -1.523067783292
C           -1.462003451607     0.402304587270     0.010961862178
H           -1.813098861829     1.430955446030     0.144280950819
H           -1.186832797552     0.305243720340    -1.043530202791
C           -0.239245581122     0.175994580477     0.892698401192
H            0.079696501041    -0.865485225582     0.802428674650
H           -0.530676675834     0.323651462676     1.936663176477
C            0.923677834930     1.109116391206     0.549240337021
H            0.532230486836     2.128378739947     0.494407825143
H            1.652605751494     1.108346209673     1.365119040025
C            1.646819165417     0.756055097574    -0.759972097121
H            0.971810334571     0.196024275024    -1.414028396761
H            1.902925518827     1.670058127863    -1.299582228441
}

set globals {
  reference rhf
  g_convergence gau_verytight
  basis aug-cc-pvtz
  freeze_core true
  scf_type df
  mp_type df
}
optimize('mp2')
--------------------------------------------------------------------------

    Molecular point group: c1
  Charge       = 0
  Multiplicity = 1
  Basis Set: AUG-CC-PVTZ
  Basis Set:
  @DF-RHF Final Energy:  -313.53904224579446
    Total Energy =                       -313.5390422457945192
  Basis Set:
    Molecular point group: c1
  Basis Set: AUG-CC-PVTZ
  Basis Set:
  Basis Set:
	 Reference Energy          =    -313.5390422457944624 [Eh]
	 Singles Energy            =      -0.0000000000000001 [Eh]
	 Same-Spin Energy          =      -0.3161685995420764 [Eh]
	 Opposite-Spin Energy      =      -1.1254070525656672 [Eh]
	 Correlation Energy        =      -1.4415756521077436 [Eh]
	 Total Energy              =    -314.9806178979022206 [Eh]
	 SCS Total Energy          =    -314.9949202420539791 [Eh]
  Basis Set: AUG-CC-PVTZ
  Basis Set:
  @DF-RHF Final Energy:  -313.53904309516753
    Total Energy =                       -313.5390430951674716
  Basis Set:
  Basis Set: AUG-CC-PVTZ
  Basis Set:
  @DF-RHF Final Energy:  -313.53904258410051
    Total Energy =                       -313.5390425841006845
  @DF-RHF Final Energy:  -313.53904236021828
    Total Energy =                       -313.5390423602181045
  @DF-RHF Final Energy:  -313.53904263924068
    Total Energy =                       -313.5390426392403356
  @DF-RHF Final Energy:  -313.53904244251106
    Total Energy =                       -313.5390424425108904
  @DF-RHF Final Energy:  -313.53904248970463
    Total Energy =                       -313.5390424897042863
  @DF-RHF Final Energy:  -313.53904236571191
    Total Energy =                       -313.5390423657121346
  @DF-RHF Final Energy:  -313.53904240462231
    Total Energy =                       -313.5390424046224780
  @DF-RHF Final Energy:  -313.53904230843182
    Total Energy =                       -313.5390423084317604
  @DF-RHF Final Energy:  -313.53904231261231
    Total Energy =                       -313.5390423126124233
  @DF-RHF Final Energy:  -313.53904236936859
    Total Energy =                       -313.5390423693684170
  @DF-RHF Final Energy:  -313.53904231054292
    Total Energy =                       -313.5390423105427544
  @DF-RHF Final Energy:  -313.53904224607322
    Total Energy =                       -313.5390422460733930
  @DF-RHF Final Energy:  -313.53904226486088
    Total Energy =                       -313.5390422648606545
  @DF-RHF Final Energy:  -313.53904224723885
    Total Energy =                       -313.5390422472388536
  @DF-RHF Final Energy:  -313.53904232726029
    Total Energy =                       -313.5390423272601765
  @DF-RHF Final Energy:  -313.53904231253847
    Total Energy =                       -313.5390423125386405
  @DF-RHF Final Energy:  -313.53904253657271
    Total Energy =                       -313.5390425365725378
  @DF-RHF Final Energy:  -313.53904262102014
    Total Energy =                       -313.5390426210199166
  @DF-RHF Final Energy:  -313.53904266519828
    Total Energy =                       -313.5390426651985081
  @DF-RHF Final Energy:  -313.53904242285603
    Total Energy =                       -313.5390424228556867
  @DF-RHF Final Energy:  -313.53904233039600
    Total Energy =                       -313.5390423303960006
  @DF-RHF Final Energy:  -313.53904232071608
    Total Energy =                       -313.5390423207161916
  @DF-RHF Final Energy:  -313.53904232739109
    Total Energy =                       -313.5390423273912006
  @DF-RHF Final Energy:  -313.53904234823460
    Total Energy =                       -313.5390423482350570
	 Singles Energy            =      -0.0000000000000000 [Eh]
	 Same-Spin Energy          =      -0.3161685897827234 [Eh]
	 Opposite-Spin Energy      =      -1.1254069606528307 [Eh]
	 Correlation Energy        =      -1.4415755504355543 [Eh]
	 Total Energy              =    -314.9806178986701752 [Eh]
	 SCS Total Energy          =    -314.9949202309455814 [Eh]
  Charge       = 0
  Multiplicity = 1
  Basis Set: AUG-CC-PVTZ
  Basis Set:

    Orbital Energies (a.u.)
    -----------------------

    Doubly Occupied:

       1A    -11.213115     2A    -11.212239     3A    -11.210619
       4A    -11.209948     5A    -11.209510     6A    -11.208914
       7A    -11.207014     8A    -11.206959     9A     -1.093546
      10A     -1.060203    11A     -1.008356    12A     -0.946343
      13A     -0.888645    14A     -0.818430    15A     -0.791090
      16A     -0.763093    17A     -0.647013    18A     -0.628814
      19A     -0.612781    20A     -0.593053    21A     -0.572762
      22A     -0.558124    23A     -0.544500    24A     -0.532102
      25A     -0.516519    26A     -0.500367    27A     -0.492507
      28A     -0.471059    29A     -0.465503    30A     -0.462866
      31A     -0.443529    32A     -0.439944    33A     -0.434322

  @DF-RHF Final Energy:  -313.53904230306807

   => Energetics <=

    Nuclear Repulsion Energy =            392.7953010693987608
    One-Electron Energy =               -1200.7411035271597939
    Two-Electron Energy =                 494.4067601546931314
    DFT Exchange-Correlation Energy =       0.0000000000000000
    Empirical Dispersion Energy =           0.0000000000000000
    PCM Polarization Energy =               0.0000000000000000
    EFP Energy =                            0.0000000000000000
    Total Energy =                       -313.5390423030679017
  Basis Set:
    Molecular point group: c1
  Basis Set: AUG-CC-PVTZ
  Basis Set:
  Basis Set:
	 Reference Energy          =    -313.5390423030680722 [Eh]
	 Singles Energy            =      -0.0000000000000006 [Eh]
	 Same-Spin Energy          =      -0.3161685919472013 [Eh]
	 Opposite-Spin Energy      =      -1.1254070035173795 [Eh]
	 Correlation Energy        =      -1.4415755954645815 [Eh]
	 Total Energy              =    -314.9806178985326710 [Eh]

	 ================> DF-SCS-MP2 Energies <==================
	-----------------------------------------------------------
	 SCS Same-Spin Scale       =       0.3333333333333333 [-]
	 SCS Opposite-Spin Scale   =       1.2000000000000000 [-]
	 SCS Same-Spin Energy      =      -0.1053895306490671 [Eh]
	 SCS Opposite-Spin Energy  =      -1.3504884042208554 [Eh]
	 SCS Correlation Energy    =      -1.4558779348699231 [Eh]
	 SCS Total Energy          =    -314.9949202379380040 [Eh]
	-----------------------------------------------------------

  -Total Gradient:
     Atom            X                  Y                   Z
    ------   -----------------  -----------------  -----------------
       1        0.000000151704    -0.000000054674     0.000000162938
       2       -0.000000194217    -0.000000174616     0.000000059209
       3        0.000000045226    -0.000000020949    -0.000000364125
       4       -0.000000154057     0.000000310762     0.000000012732
       5        0.000000009112     0.000000028269     0.000000004016
       6        0.000000008018     0.000000009854    -0.000000000545
       7        0.000000000951    -0.000000005918    -0.000000006774
       8        0.000000011172    -0.000000000189     0.000000000481
       9       -0.000000073668     0.000000235228    -0.000000218835
      10        0.000000100258    -0.000000318592     0.000000014828
      11       -0.000000083394    -0.000000030013     0.000000313626
      12       -0.000000051807    -0.000000023712    -0.000000017057
      13        0.000000052008     0.000000048074     0.000000045205
      14       -0.000000013090     0.000000010247     0.000000020257
      15        0.000000035712    -0.000000185192     0.000000121382
      16       -0.000000053638     0.000000291198     0.000000084318
      17        0.000000088766    -0.000000019050    -0.000000312704
      18        0.000000244585     0.000000026286     0.000000138149
      19       -0.000000003485     0.000000050236     0.000000051201
      20        0.000000047885    -0.000000053700    -0.000000050681
      21       -0.000000030788    -0.000000227625    -0.000000047624
      22        0.000000025511     0.000000059045     0.000000029145
      23        0.000000025347     0.000000022770     0.000000007794
      24       -0.000000155876     0.000000020406    -0.000000098803
      25        0.000000008106     0.000000009925     0.000000021932
      26       -0.000000040337    -0.000000008074     0.000000029935

  **** Optimization is complete! (in 27 steps) ****
    Final optimized geometry and variables:
    Molecular point group: c1

    Geometry (in Angstrom), charge = 0, multiplicity = 1:

    C           -3.824375187650    -0.313951111057    -0.557452828203
    H           -4.630056380139    -1.011590996561    -0.330121160651
    H           -3.573618883098    -0.423495057497    -1.613304844310
    H           -4.204939484005     0.697557317148    -0.410401331921
    C            2.707772713830    -1.396260967166     0.133620016906
    H            2.002097801934    -2.009980983915    -0.428777652266
    H            2.311201008613    -1.269125203791     1.140758294793
    H            3.642783178882    -1.950436288091     0.215072876689
    C           -2.600934090662    -0.562336040716     0.316104191635
    H           -2.248165600313    -1.587540220377     0.175272742364
    H           -2.874907120301    -0.471671820790     1.370643648592
    C            2.927013353743    -0.053014224626    -0.553274297286
    H            3.627242671654     0.544501478186     0.037152387137
    H            3.402622077682    -0.218599080799    -1.522848536974
    C           -1.462003082097     0.402328576914     0.010870849529
    H           -1.813085315408     1.430984404901     0.144180742270
    H           -1.186770345199     0.305274056170    -1.043605090501
    C           -0.239302674336     0.175986164167     0.892679020259
    H            0.079625795900    -0.865497798023     0.802416875113
    H           -0.530793316306     0.323636880385     1.936627181927
    C            0.923656743115     1.109090399714     0.549297103857
    H            0.532231026164     2.128359199007     0.494441589516
    H            1.652533470335     1.108306641897     1.365221038409
    C            1.646873700407     0.756016252510    -0.759870299591
    H            0.971903046156     0.195977568258    -1.413958502129
    H            1.903011371395     1.670012389821    -1.299476306299

*** Psi4 exiting successfully. Buy a developer a beer!
