                              Psi4 1.0.0 Driver

  ==> Input File <==

--------------------------------------------------------------------------
memory 30 Gb

molecule molecule_73_psi {
0 1
symmetry c1
    C            3.037626262235    -0.856052597779    -0.365211776064
    H            4.081222501838    -1.008424311051    -0.632327996794
    H            2.441929078335    -1.015194874794    -1.261018524802
    H            2.762427060986    -1.620707494228     0.359659284238
    C           -3.037634643243     0.856057518234    -0.365152815418
    H           -2.762433726946     1.620692061423     0.359738805804
    H           -4.081233755417     1.008431714411    -0.632256169499
    H           -2.441945601011     1.015229675673    -1.260959530383
    C            2.819905848561     0.533726891887     0.206109712733
    H            3.093784083448     1.278124363692    -0.543729748746
    H            3.491751194755     0.683507257279     1.051988494392
    C           -2.819901866882    -0.533737914307     0.206125329862
    H           -3.491737221775    -0.683546559416     1.052006825254
    H           -3.093784734343    -1.278114202637    -0.543733265643
    C            1.390828965409     0.801554401312     0.654879360708
    H            1.347906531487     1.802397554300     1.084531658467
    H            1.134533385415     0.110527535275     1.461277370184
    C            0.361465982810     0.671605927315    -0.471012068250
    H            0.863078051272     0.820410870192    -1.429938159519
    H           -0.377728280612     1.466325916256    -0.385650022972
    C           -0.361471547298    -0.671583526478    -0.471031407433
    H           -0.863097432007    -0.820352701179    -1.429955499730
    H            0.377722504190    -1.466307769554    -0.385709347558
    C           -1.390818310753    -0.801571211448     0.654870107774
    H           -1.347884972984    -1.802426456966     1.084492800638
    H           -1.134516892332    -0.110566491154     1.461284802256
}

set globals {
  reference rhf
  g_convergence gau_verytight
  basis aug-cc-pvtz
  freeze_core true
  scf_type df
  mp_type df
}
optimize('mp2')
--------------------------------------------------------------------------

    Molecular point group: c1
  Charge       = 0
  Multiplicity = 1
  Basis Set: AUG-CC-PVTZ
  Basis Set:
  @DF-RHF Final Energy:  -313.53186087209934
    Total Energy =                       -313.5318608720992870
  Basis Set:
    Molecular point group: c1
  Basis Set: AUG-CC-PVTZ
  Basis Set:
  Basis Set:
	 Reference Energy          =    -313.5318608720993439 [Eh]
	 Singles Energy            =      -0.0000000000000000 [Eh]
	 Same-Spin Energy          =      -0.3176746701794896 [Eh]
	 Opposite-Spin Energy      =      -1.1269095723481122 [Eh]
	 Correlation Energy        =      -1.4445842425276019 [Eh]
	 Total Energy              =    -314.9764451146269266 [Eh]
	 SCS Total Energy          =    -314.9900439156435823 [Eh]
  Basis Set: AUG-CC-PVTZ
  Basis Set:
  @DF-RHF Final Energy:  -313.53206036361081
    Total Energy =                       -313.5320603636104124
  Basis Set:
  Basis Set: AUG-CC-PVTZ
  Basis Set:
  @DF-RHF Final Energy:  -313.53233409442765
    Total Energy =                       -313.5323340944277675
  @DF-RHF Final Energy:  -313.53227375662499
    Total Energy =                       -313.5322737566251590
  @DF-RHF Final Energy:  -313.53230535664522
    Total Energy =                       -313.5323053566453382
  @DF-RHF Final Energy:  -313.53228908631127
    Total Energy =                       -313.5322890863114935
  @DF-RHF Final Energy:  -313.53229096086028
    Total Energy =                       -313.5322909608602231
  @DF-RHF Final Energy:  -313.53229086952570
    Total Energy =                       -313.5322908695260935
  @DF-RHF Final Energy:  -313.53229092643238
    Total Energy =                       -313.5322909264327791
  @DF-RHF Final Energy:  -313.53229126856968
    Total Energy =                       -313.5322912685696792
  @DF-RHF Final Energy:  -313.53229207318788
    Total Energy =                       -313.5322920731878185
  @DF-RHF Final Energy:  -313.53229090686949
    Total Energy =                       -313.5322909068695481
  @DF-RHF Final Energy:  -313.53229100692886
    Total Energy =                       -313.5322910069290288
  @DF-RHF Final Energy:  -313.53229111750807
    Total Energy =                       -313.5322911175082936
  @DF-RHF Final Energy:  -313.53229079138157
    Total Energy =                       -313.5322907913813424
  @DF-RHF Final Energy:  -313.53229103737033
    Total Energy =                       -313.5322910373704985
  @DF-RHF Final Energy:  -313.53229091892086
    Total Energy =                       -313.5322909189210918
  @DF-RHF Final Energy:  -313.53229114143147
    Total Energy =                       -313.5322911414319265
  @DF-RHF Final Energy:  -313.53229126710681
    Total Energy =                       -313.5322912671067002
  @DF-RHF Final Energy:  -313.53229115677527
    Total Energy =                       -313.5322911567750452
  @DF-RHF Final Energy:  -313.53229085469809
    Total Energy =                       -313.5322908546981466
  @DF-RHF Final Energy:  -313.53229121971901
    Total Energy =                       -313.5322912197192409
  @DF-RHF Final Energy:  -313.53229091285522
    Total Energy =                       -313.5322909128553874
  @DF-RHF Final Energy:  -313.53229091606005
    Total Energy =                       -313.5322909160606173
  @DF-RHF Final Energy:  -313.53229107695398
    Total Energy =                       -313.5322910769542091
  @DF-RHF Final Energy:  -313.53229109230472
    Total Energy =                       -313.5322910923047175
  @DF-RHF Final Energy:  -313.53229108020327
    Total Energy =                       -313.5322910802035494
	 Singles Energy            =      -0.0000000000000000 [Eh]
	 Same-Spin Energy          =      -0.3172264721309480 [Eh]
	 Opposite-Spin Energy      =      -1.1271961969539834 [Eh]
	 Correlation Energy        =      -1.4444226690849313 [Eh]
	 Total Energy              =    -314.9767137492881943 [Eh]
	 SCS Total Energy          =    -314.9906686739250290 [Eh]
  Charge       = 0
  Multiplicity = 1
  Basis Set: AUG-CC-PVTZ
  Basis Set:

    Orbital Energies (a.u.)
    -----------------------

    Doubly Occupied:

       1A    -11.212939     2A    -11.212939     3A    -11.209928
       4A    -11.209838     5A    -11.209293     6A    -11.208785
       7A    -11.206823     8A    -11.206823     9A     -1.093299
      10A     -1.058688    11A     -1.003204    12A     -0.945857
      13A     -0.895296    14A     -0.825905    15A     -0.785494
      16A     -0.755111    17A     -0.644640    18A     -0.630452
      19A     -0.602179    20A     -0.600409    21A     -0.589372
      22A     -0.543758    23A     -0.537610    24A     -0.536985
      25A     -0.524675    26A     -0.499424    27A     -0.495895
      28A     -0.466868    29A     -0.466688    30A     -0.461696
      31A     -0.442451    32A     -0.439205    33A     -0.428750

  @DF-RHF Final Energy:  -313.53229103481738

   => Energetics <=

    Nuclear Repulsion Energy =            400.4344489329837415
    One-Electron Energy =               -1216.0309236392147341
    Two-Electron Energy =                 502.0641836714135025
    DFT Exchange-Correlation Energy =       0.0000000000000000
    Empirical Dispersion Energy =           0.0000000000000000
    PCM Polarization Energy =               0.0000000000000000
    EFP Energy =                            0.0000000000000000
    Total Energy =                       -313.5322910348174901
  Basis Set:
    Molecular point group: c1
  Basis Set: AUG-CC-PVTZ
  Basis Set:
  Basis Set:
	 Reference Energy          =    -313.5322910348173764 [Eh]
	 Singles Energy            =      -0.0000000000000001 [Eh]
	 Same-Spin Energy          =      -0.3172264593527440 [Eh]
	 Opposite-Spin Energy      =      -1.1271962510161249 [Eh]
	 Correlation Energy        =      -1.4444227103688689 [Eh]
	 Total Energy              =    -314.9767137451862595 [Eh]

	 ================> DF-SCS-MP2 Energies <==================
	-----------------------------------------------------------
	 SCS Same-Spin Scale       =       0.3333333333333333 [-]
	 SCS Opposite-Spin Scale   =       1.2000000000000000 [-]
	 SCS Same-Spin Energy      =      -0.1057421531175813 [Eh]
	 SCS Opposite-Spin Energy  =      -1.3526355012193498 [Eh]
	 SCS Correlation Energy    =      -1.4583776543369311 [Eh]
	 SCS Total Energy          =    -314.9906686891542904 [Eh]
	-----------------------------------------------------------

  -Total Gradient:
     Atom            X                  Y                   Z
    ------   -----------------  -----------------  -----------------
       1       -0.000000103611     0.000000126050     0.000000068841
       2        0.000000104642    -0.000000002848    -0.000000036776
       3       -0.000000071036    -0.000000031403    -0.000000137042
       4       -0.000000015058    -0.000000096162     0.000000066475
       5        0.000000012929    -0.000000183174     0.000000139903
       6        0.000000069648     0.000000188911     0.000000165404
       7       -0.000000185718     0.000000014891    -0.000000037881
       8        0.000000154249     0.000000081044    -0.000000236001
       9       -0.000000019613     0.000000038097     0.000000011268
      10        0.000000014628    -0.000000000832    -0.000000038057
      11       -0.000000031573     0.000000024126     0.000000024770
      12        0.000000063043     0.000000037354    -0.000000001503
      13       -0.000000124503    -0.000000019870     0.000000131151
      14       -0.000000055603    -0.000000109258    -0.000000139726
      15       -0.000000155846    -0.000000136263    -0.000000118718
      16       -0.000000055625     0.000000007265    -0.000000044759
      17        0.000000008594    -0.000000029882     0.000000128012
      18        0.000000623667    -0.000000090943     0.000000185246
      19        0.000000195008     0.000000048362    -0.000000249496
      20       -0.000000227335     0.000000103806     0.000000116478
      21       -0.000000140620     0.000000017392     0.000000202125
      22       -0.000000148863    -0.000000020021    -0.000000337628
      23        0.000000234480    -0.000000026922     0.000000007166
      24       -0.000000157934     0.000000021023    -0.000000133305
      25        0.000000020227    -0.000000078894     0.000000012832
      26       -0.000000008180     0.000000118150     0.000000251223

  **** Optimization is complete! (in 28 steps) ****
    Final optimized geometry and variables:
    Molecular point group: c1

    Geometry (in Angstrom), charge = 0, multiplicity = 1:

    C            3.054617709423    -0.860551225346    -0.326187059466
    H            4.104718742896    -1.016450856836    -0.573215562265
    H            2.472980988367    -1.045803372555    -1.229046886310
    H            2.770007287716    -1.608985662578     0.415170548501
    C           -3.054625534445     0.860565892334    -0.326057702542
    H           -2.769984779637     1.608979126429     0.415309893821
    H           -4.104734990165     1.016476769301    -0.573043646909
    H           -2.473020922279     1.045840044210    -1.228933824081
    C            2.823802549797     0.548840603384     0.207309282715
    H            3.105802642833     1.275386296331    -0.559834371071
    H            3.487503937403     0.723766371835     1.057421727209
    C           -2.823796673641    -0.548841255391     0.207392320945
    H           -3.487470941346    -0.723787767100     1.057521800904
    H           -3.105824598164    -1.275365380710    -0.559761573349
    C            1.383760476106     0.827413965603     0.637707777008
    H            1.340459401220     1.839890988911     1.044524458232
    H            1.119095823171     0.156581275616     1.461021292287
    C            0.357722847019     0.677459932924    -0.497095640251
    H            0.864883721437     0.828346865913    -1.455157885244
    H           -0.390479971757     1.467513538821    -0.421401795661
    C           -0.357739249964    -0.677457846335    -0.497097131198
    H           -0.864930771027    -0.828325558211    -1.455145990381
    H            0.390464667548    -1.467513960093    -0.421442682950
    C           -1.383741391742    -0.827431185438     0.637736535194
    H           -1.340432327670    -1.839917179156     1.044529893452
    H           -1.119046632923    -0.156618225136     1.461056382492

*** Psi4 exiting successfully. Buy a developer a beer!
