                              Psi4 1.0.0 Driver

  ==> Input File <==

--------------------------------------------------------------------------
memory 60 Gb

molecule molecule_25_psi {
0 1
C           -3.509634213733    -0.211675392040     0.521411140195
H           -3.092017168671    -0.236452671800     1.526979770073
H           -4.396637874123    -0.844758057842     0.518250413416
H           -3.828339703732     0.811849500845     0.316810319618
C            2.965039910140    -0.971820297567     0.677271142495
H            2.298737576579    -0.922544407615     1.538331461868
H            3.795275089803    -0.287418577296     0.860272981494
H            3.368778523134    -1.982893384644     0.629463538430
C           -2.498503919559    -0.676913484693    -0.521168929910
H           -2.991366173736    -0.737561538461    -1.494049029295
H           -2.162469976389    -1.689718629168    -0.281072923195
C            2.239800363820    -0.605591787052    -0.612954079260
H            2.910631134739    -0.760674734442    -1.460885328470
H            1.396558028781    -1.284189086506    -0.764357416964
C           -1.280006305010     0.236899685703    -0.638657365727
H           -1.611791003275     1.253754532633    -0.876184020006
H           -0.671538089544    -0.095604732248    -1.482972453194
C           -0.421188016902     0.272613503678     0.620701665581
H           -0.095626897307    -0.745281200084     0.857760120270
H           -1.025498343287     0.604556790952     1.467631291596
C            0.791751784682     1.195395030814     0.504565161948
H            0.441862749492     2.221880932288     0.361602260257
H            1.335624329053     1.189531294605     1.452151442270
C            1.749924754798     0.841278013369    -0.634640433363
H            1.269019672267     1.043277905993    -1.594347288821
H            2.616050342991     1.507493763598    -0.581501930820
}

set globals {
  reference rhf
  g_convergence gau_verytight
  basis aug-cc-pvtz
  freeze_core true
  scf_type df
  mp_type df
}
optimize('mp2')
--------------------------------------------------------------------------

    Molecular point group: c1
  Charge       = 0
  Multiplicity = 1
  Basis Set: AUG-CC-PVTZ
  Basis Set:
  @DF-RHF Final Energy:  -313.53964008702405
    Total Energy =                       -313.5396400870242815
  Basis Set:
    Molecular point group: c1
  Basis Set: AUG-CC-PVTZ
  Basis Set:
  Basis Set:
	 Reference Energy          =    -313.5396400870240541 [Eh]
	 Singles Energy            =      -0.0000000000000000 [Eh]
	 Same-Spin Energy          =      -0.3172182215306839 [Eh]
	 Opposite-Spin Energy      =      -1.1264568434974673 [Eh]
	 Correlation Energy        =      -1.4436750650281511 [Eh]
	 Total Energy              =    -314.9833151520522279 [Eh]
	 SCS Total Energy          =    -314.9971277063979187 [Eh]
  Basis Set: AUG-CC-PVTZ
  Basis Set:
  @DF-RHF Final Energy:  -313.53963971538604
    Total Energy =                       -313.5396397153857038
  Basis Set:
  Basis Set: AUG-CC-PVTZ
  Basis Set:
  @DF-RHF Final Energy:  -313.53963991570259
    Total Energy =                       -313.5396399157027645
  @DF-RHF Final Energy:  -313.53963984090814
    Total Energy =                       -313.5396398409079666
  @DF-RHF Final Energy:  -313.53963983419504
    Total Energy =                       -313.5396398341950999
  @DF-RHF Final Energy:  -313.53963985049285
    Total Energy =                       -313.5396398504927333
  @DF-RHF Final Energy:  -313.53963996834017
    Total Energy =                       -313.5396399683401114
  @DF-RHF Final Energy:  -313.53963978172061
    Total Energy =                       -313.5396397817204956
  @DF-RHF Final Energy:  -313.53963992724533
    Total Energy =                       -313.5396399272451049
  @DF-RHF Final Energy:  -313.53963970717763
    Total Energy =                       -313.5396397071775709
  @DF-RHF Final Energy:  -313.53963991122760
    Total Energy =                       -313.5396399112277095
  @DF-RHF Final Energy:  -313.53963993843860
    Total Energy =                       -313.5396399384385404
  @DF-RHF Final Energy:  -313.53963981099758
    Total Energy =                       -313.5396398109975848
  @DF-RHF Final Energy:  -313.53963989764236
    Total Energy =                       -313.5396398976423029
  @DF-RHF Final Energy:  -313.53963995276251
    Total Energy =                       -313.5396399527626841
  @DF-RHF Final Energy:  -313.53963995744442
    Total Energy =                       -313.5396399574441375
  @DF-RHF Final Energy:  -313.53963986255781
    Total Energy =                       -313.5396398625575785
  @DF-RHF Final Energy:  -313.53963995647206
    Total Energy =                       -313.5396399564721719
  @DF-RHF Final Energy:  -313.53963894896293
    Total Energy =                       -313.5396389489629314
  @DF-RHF Final Energy:  -313.53963987414483
    Total Energy =                       -313.5396398741448820
  @DF-RHF Final Energy:  -313.53963981781652
    Total Energy =                       -313.5396398178162940
  @DF-RHF Final Energy:  -313.53963992306348
    Total Energy =                       -313.5396399230634188
  @DF-RHF Final Energy:  -313.53963877055264
    Total Energy =                       -313.5396387705524717
  @DF-RHF Final Energy:  -313.53963993471842
    Total Energy =                       -313.5396399347184797
  @DF-RHF Final Energy:  -313.53963986534069
    Total Energy =                       -313.5396398653410301
  @DF-RHF Final Energy:  -313.53963969738032
    Total Energy =                       -313.5396396973806077
  @DF-RHF Final Energy:  -313.53963983613221
    Total Energy =                       -313.5396398361323236
  @DF-RHF Final Energy:  -313.53963990088357
    Total Energy =                       -313.5396399008836852
  @DF-RHF Final Energy:  -313.53963977804648
    Total Energy =                       -313.5396397780465918
  @DF-RHF Final Energy:  -313.53963986233060
    Total Energy =                       -313.5396398623304322
  @DF-RHF Final Energy:  -313.53963995906901
    Total Energy =                       -313.5396399590689498
  @DF-RHF Final Energy:  -313.53963996139498
    Total Energy =                       -313.5396399613946414
  @DF-RHF Final Energy:  -313.53963971156810
    Total Energy =                       -313.5396397115679861
  @DF-RHF Final Energy:  -313.53963989642290
    Total Energy =                       -313.5396398964228979
  @DF-RHF Final Energy:  -313.53963951794907
    Total Energy =                       -313.5396395179490128
  @DF-RHF Final Energy:  -313.53963993440618
    Total Energy =                       -313.5396399344065799
	 Singles Energy            =      -0.0000000000000001 [Eh]
	 Same-Spin Energy          =      -0.3172182672938812 [Eh]
	 Opposite-Spin Energy      =      -1.1264569511293918 [Eh]
	 Correlation Energy        =      -1.4436752184232731 [Eh]
	 Total Energy              =    -314.9833151528294479 [Eh]
	 SCS Total Energy          =    -314.9971276981927417 [Eh]
  Charge       = 0
  Multiplicity = 1
  Basis Set: AUG-CC-PVTZ
  Basis Set:

    Orbital Energies (a.u.)
    -----------------------

    Doubly Occupied:

       1A    -11.213076     2A    -11.212298     3A    -11.210170
       4A    -11.209978     5A    -11.209485     6A    -11.208923
       7A    -11.206842     8A    -11.206541     9A     -1.095972
      10A     -1.059129    11A     -1.005273    12A     -0.943766
      13A     -0.894078    14A     -0.835647    15A     -0.784939
      16A     -0.744904    17A     -0.650316    18A     -0.628784
      19A     -0.613295    20A     -0.600058    21A     -0.573939
      22A     -0.556331    23A     -0.549907    24A     -0.530106
      25A     -0.516901    26A     -0.497194    27A     -0.491808
      28A     -0.471057    29A     -0.469298    30A     -0.462884
      31A     -0.445341    32A     -0.437545    33A     -0.432225

  @DF-RHF Final Energy:  -313.53963995507428

   => Energetics <=

    Nuclear Repulsion Energy =            399.9333796240424022
    One-Electron Energy =               -1215.0100118939321874
    Two-Electron Energy =                 501.5369923148153930
    DFT Exchange-Correlation Energy =       0.0000000000000000
    Empirical Dispersion Energy =           0.0000000000000000
    PCM Polarization Energy =               0.0000000000000000
    EFP Energy =                            0.0000000000000000
    Total Energy =                       -313.5396399550744491
  Basis Set:
    Molecular point group: c1
  Basis Set: AUG-CC-PVTZ
  Basis Set:
  Basis Set:
	 Reference Energy          =    -313.5396399550742785 [Eh]
	 Singles Energy            =      -0.0000000000000002 [Eh]
	 Same-Spin Energy          =      -0.3172182726457064 [Eh]
	 Opposite-Spin Energy      =      -1.1264569277580159 [Eh]
	 Correlation Energy        =      -1.4436752004037225 [Eh]
	 Total Energy              =    -314.9833151554780102 [Eh]

	 ================> DF-SCS-MP2 Energies <==================
	-----------------------------------------------------------
	 SCS Same-Spin Scale       =       0.3333333333333333 [-]
	 SCS Opposite-Spin Scale   =       1.2000000000000000 [-]
	 SCS Same-Spin Energy      =      -0.1057394242152355 [Eh]
	 SCS Opposite-Spin Energy  =      -1.3517483133096191 [Eh]
	 SCS Correlation Energy    =      -1.4574877375248547 [Eh]
	 SCS Total Energy          =    -314.9971276925991219 [Eh]
	-----------------------------------------------------------

  -Total Gradient:
     Atom            X                  Y                   Z
    ------   -----------------  -----------------  -----------------
       1        0.000000554391    -0.000000199856    -0.000000482802
       2        0.000000222518     0.000000061128     0.000000641229
       3       -0.000000458649    -0.000000396404    -0.000000073606
       4       -0.000000260497     0.000000660980    -0.000000041573
       5       -0.000000245040     0.000000078775    -0.000000519515
       6       -0.000000281431     0.000000049608     0.000000453465
       7        0.000000401456     0.000000301336     0.000000163347
       8        0.000000129938    -0.000000397945    -0.000000064029
       9        0.000000143821     0.000000744358     0.000000592808
      10       -0.000000412754    -0.000000045596    -0.000000660585
      11        0.000000200325    -0.000000868739     0.000000195516
      12        0.000000480682     0.000000390799     0.000000709662
      13        0.000000368247     0.000000009648    -0.000000310166
      14       -0.000000719618    -0.000000542424    -0.000000148129
      15       -0.000000514332    -0.000000676253     0.000000614826
      16       -0.000000564382     0.000001072524    -0.000000332292
      17        0.000000507214    -0.000000477742    -0.000000946453
      18        0.000000296767     0.000001113657    -0.000000484724
      19        0.000000487978    -0.000000988299     0.000000423426
      20       -0.000000516310    -0.000000041547     0.000000337209
      21        0.000000115758    -0.000000144979    -0.000000101156
      22       -0.000000184045     0.000000408018    -0.000000202543
      23        0.000000383661     0.000000007223     0.000000632765
      24       -0.000000216570    -0.000000542820     0.000000284256
      25       -0.000000426318     0.000000131212    -0.000000731236
      26        0.000000507196     0.000000293333     0.000000050297

  **** Optimization is complete! (in 37 steps) ****
    Final optimized geometry and variables:
    Molecular point group: c1

    Geometry (in Angstrom), charge = 0, multiplicity = 1:

    C           -3.509630207396    -0.211687343971     0.521421584661
    H           -3.092005134418    -0.236477895039     1.526987013419
    H           -4.396630314425    -0.844775451014     0.518257747295
    H           -3.828343669250     0.811839230651     0.316839268394
    C            2.965035041191    -0.971815362970     0.677286215110
    H            2.298727455394    -0.922529199433     1.538342004523
    H            3.795270100539    -0.287412760512     0.860285981226
    H            3.368772607976    -1.982889529277     0.629492297251
    C           -2.498506081777    -0.676904080271    -0.521173842680
    H           -2.991376574218    -0.737540868486    -1.494050881043
    H           -2.162464109741    -1.689711240532    -0.281095732253
    C            2.239804327793    -0.605599779369    -0.612947673618
    H            2.910640368082    -0.760689143776    -1.460873592850
    H            1.396562967555    -1.284198907580    -0.764349901016
    C           -1.280015149638     0.236918119050    -0.638660136299
    H           -1.611809119475     1.253774919771    -0.876168544770
    H           -0.671556217413    -0.095575426818    -1.482987172420
    C           -0.421186327099     0.272614586197     0.620691711643
    H           -0.095627453394    -0.745285678741     0.857733310682
    H           -1.025491842601     0.604543945692     1.467631064124
    C            0.791756247553     1.195391847212     0.504556382075
    H            0.441870267649     2.221879132026     0.361592361937
    H            1.335629161483     1.189526575799     1.452143555312
    C            1.749927470329     0.841269215957    -0.634647971683
    H            1.269019994099     1.043260123042    -1.594356081542
    H            2.616052265991     1.507486899348    -0.581515286140

*** Psi4 exiting successfully. Buy a developer a beer!
