                              Psi4 1.0.0 Driver

  ==> Input File <==

--------------------------------------------------------------------------
memory 60 Gb

molecule molecule_40_psi {
0 1
C            2.395410310571     1.711471119335    -0.042992148341
H            2.823326130868     2.403375941757    -0.768818346518
H            2.811210796952     1.955454917275     0.935549436104
H            1.322737672613     1.891792519086     0.001112075504
C           -3.105256588541     1.016721085764     0.577906860534
H           -3.950141100820     1.668936260124     0.358192226669
H           -2.253533492788     1.651192395170     0.820388008991
H           -3.353069582791     0.435858281063     1.468058498198
C            2.713253272096     0.262686746640    -0.404211617995
H            3.798527480389     0.148444018925    -0.435193033784
H            2.355992129886     0.042772002486    -1.414594614539
C           -2.800445491288     0.094329006563    -0.597643455792
H           -3.708799481689    -0.444330334147    -0.876569210160
H           -2.514649125138     0.691665718113    -1.467915319528
C            2.121360382977    -0.762218288049     0.573466589832
H            2.040434494427    -0.306904192874     1.565709541858
H            2.809668955438    -1.603747427438     0.678485979778
C            0.759859658077    -1.318032623112     0.157686811744
H            0.437513706926    -2.057013024600     0.897675968763
H            0.873196851090    -1.858744962895    -0.787606660611
C           -0.341887786232    -0.276704310930    -0.002146647167
H           -0.402815768515     0.322907783970     0.910156937025
H           -0.090087089853     0.410306607927    -0.815557752399
C           -1.694051273880    -0.915092240270    -0.300849040286
H           -1.582121559970    -1.588474806679    -1.155699768127
H           -1.991806006674    -1.538825731085     0.548404372115
}

set globals {
  reference rhf
  g_convergence gau_verytight
  basis aug-cc-pvtz
  freeze_core true
  scf_type df
  mp_type df
}
optimize('mp2')
--------------------------------------------------------------------------

    Molecular point group: c1
  Charge       = 0
  Multiplicity = 1
  Basis Set: AUG-CC-PVTZ
  Basis Set:
  @DF-RHF Final Energy:  -313.53899023176825
    Total Energy =                       -313.5389902317681390
  Basis Set:
    Molecular point group: c1
  Basis Set: AUG-CC-PVTZ
  Basis Set:
  Basis Set:
	 Reference Energy          =    -313.5389902317682527 [Eh]
	 Singles Energy            =      -0.0000000000000000 [Eh]
	 Same-Spin Energy          =      -0.3161611350875971 [Eh]
	 Opposite-Spin Energy      =      -1.1254552921805934 [Eh]
	 Correlation Energy        =      -1.4416164272681904 [Eh]
	 Total Energy              =    -314.9806066590364253 [Eh]
	 SCS Total Energy          =    -314.9949236274141526 [Eh]
  Basis Set: AUG-CC-PVTZ
  Basis Set:
  @DF-RHF Final Energy:  -313.53898947777776
    Total Energy =                       -313.5389894777777045
  Basis Set:
  Basis Set: AUG-CC-PVTZ
  Basis Set:
  @DF-RHF Final Energy:  -313.53898963368050
    Total Energy =                       -313.5389896336808420
  @DF-RHF Final Energy:  -313.53898957740347
    Total Energy =                       -313.5389895774033562
  @DF-RHF Final Energy:  -313.53898953929468
    Total Energy =                       -313.5389895392944482
  @DF-RHF Final Energy:  -313.53898951876408
    Total Energy =                       -313.5389895187637990
  @DF-RHF Final Energy:  -313.53898912199094
    Total Energy =                       -313.5389891219911078
  @DF-RHF Final Energy:  -313.53898972493306
    Total Energy =                       -313.5389897249331739
  @DF-RHF Final Energy:  -313.53898964328096
    Total Energy =                       -313.5389896432806154
  @DF-RHF Final Energy:  -313.53898990965189
    Total Energy =                       -313.5389899096519457
  @DF-RHF Final Energy:  -313.53898945555358
    Total Energy =                       -313.5389894555535193
  @DF-RHF Final Energy:  -313.53898966743049
    Total Energy =                       -313.5389896674305419
  @DF-RHF Final Energy:  -313.53898945223142
    Total Energy =                       -313.5389894522314194
  @DF-RHF Final Energy:  -313.53898965455068
    Total Energy =                       -313.5389896545503916
  @DF-RHF Final Energy:  -313.53898972196021
    Total Energy =                       -313.5389897219604336
  @DF-RHF Final Energy:  -313.53898981437817
    Total Energy =                       -313.5389898143782830
  @DF-RHF Final Energy:  -313.53898918105409
    Total Energy =                       -313.5389891810543190
	 Singles Energy            =      -0.0000000000000002 [Eh]
	 Same-Spin Energy          =      -0.3161613048262431 [Eh]
	 Opposite-Spin Energy      =      -1.1254561708962258 [Eh]
	 Correlation Energy        =      -1.4416174757224691 [Eh]
	 Total Energy              =    -314.9806066567765583 [Eh]
	 SCS Total Energy          =    -314.9949236877383214 [Eh]
  Charge       = 0
  Multiplicity = 1
  Basis Set: AUG-CC-PVTZ
  Basis Set:

    Orbital Energies (a.u.)
    -----------------------

    Doubly Occupied:

       1A    -11.213002     2A    -11.212802     3A    -11.210914
       4A    -11.210431     5A    -11.210268     6A    -11.209105
       7A    -11.206817     8A    -11.205906     9A     -1.093781
      10A     -1.060083    11A     -1.006940    12A     -0.948914
      13A     -0.886300    14A     -0.828011    15A     -0.778090
      16A     -0.768348    17A     -0.642987    18A     -0.626412
      19A     -0.614116    20A     -0.595672    21A     -0.581343
      22A     -0.558985    23A     -0.539475    24A     -0.533516
      25A     -0.511453    26A     -0.503669    27A     -0.488423
      28A     -0.473957    29A     -0.464166    30A     -0.462104
      31A     -0.451126    32A     -0.440330    33A     -0.429071

  @DF-RHF Final Energy:  -313.53898981729094

   => Energetics <=

    Nuclear Repulsion Energy =            394.5133157911981243
    One-Electron Energy =               -1204.1715801393406764
    Two-Electron Energy =                 496.1192745308515555
    DFT Exchange-Correlation Energy =       0.0000000000000000
    Empirical Dispersion Energy =           0.0000000000000000
    PCM Polarization Energy =               0.0000000000000000
    EFP Energy =                            0.0000000000000000
    Total Energy =                       -313.5389898172909966
  Basis Set:
    Molecular point group: c1
  Basis Set: AUG-CC-PVTZ
  Basis Set:
  Basis Set:
	 Reference Energy          =    -313.5389898172909398 [Eh]
	 Singles Energy            =      -0.0000000000000001 [Eh]
	 Same-Spin Energy          =      -0.3161612088366659 [Eh]
	 Opposite-Spin Energy      =      -1.1254556330755241 [Eh]
	 Correlation Energy        =      -1.4416168419121902 [Eh]
	 Total Energy              =    -314.9806066592031470 [Eh]

	 ================> DF-SCS-MP2 Energies <==================
	-----------------------------------------------------------
	 SCS Same-Spin Scale       =       0.3333333333333333 [-]
	 SCS Opposite-Spin Scale   =       1.2000000000000000 [-]
	 SCS Same-Spin Energy      =      -0.1053870696122220 [Eh]
	 SCS Opposite-Spin Energy  =      -1.3505467596906289 [Eh]
	 SCS Correlation Energy    =      -1.4559338293028510 [Eh]
	 SCS Total Energy          =    -314.9949236465938043 [Eh]
	-----------------------------------------------------------

  -Total Gradient:
     Atom            X                  Y                   Z
    ------   -----------------  -----------------  -----------------
       1       -0.000000188949     0.000000006180     0.000000045601
       2       -0.000000063334    -0.000000082724     0.000000089548
       3       -0.000000056399    -0.000000040654    -0.000000141820
       4        0.000000206973     0.000000034850     0.000000007095
       5        0.000000021848     0.000000053256     0.000000068619
       6        0.000000125158    -0.000000094919     0.000000041325
       7       -0.000000119883    -0.000000082679    -0.000000013651
       8        0.000000038014     0.000000085001    -0.000000133386
       9        0.000000057487    -0.000000038838    -0.000000032483
      10       -0.000000135034    -0.000000038346    -0.000000001844
      11        0.000000052285     0.000000022003     0.000000157098
      12       -0.000000089577     0.000000014331    -0.000000058400
      13        0.000000101669     0.000000042757    -0.000000002875
      14       -0.000000035788    -0.000000077401     0.000000133836
      15        0.000000147218     0.000000076957     0.000000032681
      16        0.000000027850    -0.000000029414    -0.000000123629
      17       -0.000000055627     0.000000075200    -0.000000027952
      18       -0.000000027441     0.000000018993    -0.000000063963
      19        0.000000032982     0.000000031354    -0.000000042373
      20       -0.000000014534     0.000000032810     0.000000046152
      21        0.000000070493    -0.000000099536     0.000000002041
      22       -0.000000024220     0.000000000861    -0.000000022346
      23       -0.000000003476    -0.000000042927     0.000000036621
      24       -0.000000036703     0.000000083057     0.000000029773
      25       -0.000000022609    -0.000000006938    -0.000000000290
      26       -0.000000008404     0.000000056765    -0.000000025373

  **** Optimization is complete! (in 18 steps) ****
    Final optimized geometry and variables:
    Molecular point group: c1

    Geometry (in Angstrom), charge = 0, multiplicity = 1:

    C            2.395375177197     1.711472450483    -0.042995333572
    H            2.823290542173     2.403382210496    -0.768819027662
    H            2.811162503592     1.955463533346     0.935551498945
    H            1.322698208957     1.891780384434     0.001097278678
    C           -3.105230685657     1.016729009404     0.577910086749
    H           -3.950112366475     1.668952035977     0.358204198475
    H           -2.253500273323     1.651193363640     0.820387556372
    H           -3.353041688835     0.435864137032     1.468062059449
    C            2.713242142797     0.262691979565    -0.404210468443
    H            3.798519614194     0.148469288021    -0.435187477725
    H            2.355987917705     0.042768224854    -1.414596110643
    C           -2.800436650571     0.094340853692    -0.597647088412
    H           -3.708798599415    -0.444308663013    -0.876568641651
    H           -2.514642125810     0.691680864419    -1.467918768853
    C            2.121366212129    -0.762223467398     0.573467883350
    H            2.040454100944    -0.306915360591     1.565717137209
    H            2.809680908761    -1.603751418084     0.678471683878
    C            0.759861695001    -1.318043965877     0.157704584933
    H            0.437517472481    -2.057010519151     0.897711414711
    H            0.873196949744    -1.858777468437    -0.787579781425
    C           -0.341884845391    -0.276715257107    -0.002147600726
    H           -0.402824244394     0.322904550302     0.910153281110
    H           -0.090070417157     0.410295836923    -0.815558281772
    C           -1.694050240494    -0.915092982202    -0.300864964800
    H           -1.582123342424    -1.588465213926    -1.155726324267
    H           -1.991813975208    -1.538837490222     0.548379662301

*** Psi4 exiting successfully. Buy a developer a beer!
