                              Psi4 1.0.0 Driver

  ==> Input File <==

--------------------------------------------------------------------------
memory 60 Gb

molecule molecule_90_psi {
0 1
C           -2.826038565706     0.902621398317    -0.726730542179
H           -1.909167120155     1.165495807217    -1.254481410871
H           -2.933701711216     1.584407460592     0.118271610237
H           -3.659180539997     1.078161422154    -1.407226863537
C            2.931519733477    -0.919736457957    -0.801878773397
H            3.751956418858    -1.596971907631    -0.563289309619
H            3.154072297967    -0.451894665540    -1.761871666553
H            2.029649377918    -1.516043170158    -0.927240643695
C           -2.802890632547    -0.547599312278    -0.257402971741
H           -2.684741768446    -1.204146216972    -1.123938688625
H           -3.768547178663    -0.796343215024     0.189022570904
C            2.762651660489     0.146345309321     0.277586345330
H            2.602806517084    -0.328942976871     1.249931367729
H            3.700557813804     0.698810858682     0.361262490407
C           -1.695455658003    -0.864842427549     0.747344575846
H           -1.790952776144    -1.913121771317     1.037894166649
H           -1.852591106850    -0.277952370460     1.658115029823
C           -0.279117215218    -0.600349149122     0.214895432440
H           -0.285409460490    -0.661725369725    -0.879014314923
H            0.393532498326    -1.387336799662     0.561146055573
C            0.284856031315     0.750975218006     0.648767047359
H           -0.446982357609     1.533626314404     0.437938250026
H            0.410417036878     0.736565032951     1.736516661376
C            1.617031571008     1.131169657840     0.004325024104
H            1.481034210972     1.232885868706    -1.077484145966
H            1.895871268871     2.121382951170     0.371535773504
}

set globals {
  reference rhf
  g_convergence gau_verytight
  basis aug-cc-pvtz
  freeze_core true
  scf_type df
  mp_type df
}
optimize('mp2')
--------------------------------------------------------------------------

    Molecular point group: c1
  Charge       = 0
  Multiplicity = 1
  Basis Set: AUG-CC-PVTZ
  Basis Set:
  @DF-RHF Final Energy:  -313.53394134743058
    Total Energy =                       -313.5339413474307548
  Basis Set:
    Molecular point group: c1
  Basis Set: AUG-CC-PVTZ
  Basis Set:
  Basis Set:
	 Reference Energy          =    -313.5339413474305843 [Eh]
	 Singles Energy            =      -0.0000000000000004 [Eh]
	 Same-Spin Energy          =      -0.3167886871194031 [Eh]
	 Opposite-Spin Energy      =      -1.1265923208334014 [Eh]
	 Correlation Energy        =      -1.4433810079528051 [Eh]
	 Total Energy              =    -314.9773223553833645 [Eh]
	 SCS Total Energy          =    -314.9914483614704750 [Eh]
  Basis Set: AUG-CC-PVTZ
  Basis Set:
  @DF-RHF Final Energy:  -313.53394167207517
    Total Energy =                       -313.5339416720751160
  Basis Set:
  Basis Set: AUG-CC-PVTZ
  Basis Set:
  @DF-RHF Final Energy:  -313.53394162332665
    Total Energy =                       -313.5339416233269390
  @DF-RHF Final Energy:  -313.53394182581621
    Total Energy =                       -313.5339418258161004
  @DF-RHF Final Energy:  -313.53394159566398
    Total Energy =                       -313.5339415956639755
  @DF-RHF Final Energy:  -313.53394360155033
    Total Energy =                       -313.5339436015502201
  @DF-RHF Final Energy:  -313.53394160462108
    Total Energy =                       -313.5339416046211909
  @DF-RHF Final Energy:  -313.53394153807699
    Total Energy =                       -313.5339415380767036
  @DF-RHF Final Energy:  -313.53394163868626
    Total Energy =                       -313.5339416386864286
  @DF-RHF Final Energy:  -313.53394149548143
    Total Energy =                       -313.5339414954817130
  @DF-RHF Final Energy:  -313.53394235720373
    Total Energy =                       -313.5339423572041255
  @DF-RHF Final Energy:  -313.53394161996806
    Total Energy =                       -313.5339416199678908
  @DF-RHF Final Energy:  -313.53394161457538
    Total Energy =                       -313.5339416145750988
  @DF-RHF Final Energy:  -313.53394158513220
    Total Energy =                       -313.5339415851319700
  @DF-RHF Final Energy:  -313.53394195963529
    Total Energy =                       -313.5339419596353423
  @DF-RHF Final Energy:  -313.53394169703029
    Total Energy =                       -313.5339416970301727
  @DF-RHF Final Energy:  -313.53394158185915
    Total Energy =                       -313.5339415818592101
  @DF-RHF Final Energy:  -313.53394189139038
    Total Energy =                       -313.5339418913901000
  @DF-RHF Final Energy:  -313.53394169217091
    Total Energy =                       -313.5339416921705151
  @DF-RHF Final Energy:  -313.53394191701335
    Total Energy =                       -313.5339419170132373
  @DF-RHF Final Energy:  -313.53394150781992
    Total Energy =                       -313.5339415078200318
  @DF-RHF Final Energy:  -313.53394235198635
    Total Energy =                       -313.5339423519866955
  @DF-RHF Final Energy:  -313.53394156512093
    Total Energy =                       -313.5339415651213812
  @DF-RHF Final Energy:  -313.53394148852124
    Total Energy =                       -313.5339414885211227
  @DF-RHF Final Energy:  -313.53394175139044
    Total Energy =                       -313.5339417513903300
  @DF-RHF Final Energy:  -313.53394155343074
    Total Energy =                       -313.5339415534310774
  @DF-RHF Final Energy:  -313.53394153184604
    Total Energy =                       -313.5339415318458123
  @DF-RHF Final Energy:  -313.53394153219375
    Total Energy =                       -313.5339415321935803
  @DF-RHF Final Energy:  -313.53394163711977
    Total Energy =                       -313.5339416371195398
  @DF-RHF Final Energy:  -313.53394159121171
    Total Energy =                       -313.5339415912115442
  @DF-RHF Final Energy:  -313.53394148055065
    Total Energy =                       -313.5339414805504816
  @DF-RHF Final Energy:  -313.53394159678504
    Total Energy =                       -313.5339415967850414
  @DF-RHF Final Energy:  -313.53394191008698
    Total Energy =                       -313.5339419100869804
  @DF-RHF Final Energy:  -313.53394160178692
    Total Energy =                       -313.5339416017869212
  @DF-RHF Final Energy:  -313.53394174568569
    Total Energy =                       -313.5339417456858087
  @DF-RHF Final Energy:  -313.53394157350351
    Total Energy =                       -313.5339415735035118
  @DF-RHF Final Energy:  -313.53394168794659
    Total Energy =                       -313.5339416879465944
  @DF-RHF Final Energy:  -313.53394162712891
    Total Energy =                       -313.5339416271290247
  @DF-RHF Final Energy:  -313.53394168963024
    Total Energy =                       -313.5339416896301259
	 Singles Energy            =      -0.0000000000000000 [Eh]
	 Same-Spin Energy          =      -0.3167886848803754 [Eh]
	 Opposite-Spin Energy      =      -1.1265919877910164 [Eh]
	 Correlation Energy        =      -1.4433806726713918 [Eh]
	 Total Energy              =    -314.9773223623016065 [Eh]
	 SCS Total Energy          =    -314.9914483032729322 [Eh]
  Charge       = 0
  Multiplicity = 1
  Basis Set: AUG-CC-PVTZ
  Basis Set:

    Orbital Energies (a.u.)
    -----------------------

    Doubly Occupied:

       1A    -11.213449     2A    -11.212618     3A    -11.210663
       4A    -11.210412     5A    -11.209936     6A    -11.209327
       7A    -11.207202     8A    -11.205537     9A     -1.093136
      10A     -1.058849    11A     -1.003964    12A     -0.950920
      13A     -0.888885    14A     -0.826864    15A     -0.777639
      16A     -0.767714    17A     -0.647424    18A     -0.620510
      19A     -0.610957    20A     -0.592934    21A     -0.585128
      22A     -0.559145    23A     -0.541061    24A     -0.530906
      25A     -0.518530    26A     -0.501283    27A     -0.488377
      28A     -0.475528    29A     -0.463433    30A     -0.462023
      31A     -0.450325    32A     -0.435464    33A     -0.427915

  @DF-RHF Final Energy:  -313.53394149611660

   => Energetics <=

    Nuclear Repulsion Energy =            398.6064549931515444
    One-Electron Energy =               -1212.3646766022322936
    Two-Electron Energy =                 500.2242801129644931
    DFT Exchange-Correlation Energy =       0.0000000000000000
    Empirical Dispersion Energy =           0.0000000000000000
    PCM Polarization Energy =               0.0000000000000000
    EFP Energy =                            0.0000000000000000
    Total Energy =                       -313.5339414961161992
  Basis Set:
    Molecular point group: c1
  Basis Set: AUG-CC-PVTZ
  Basis Set:
  Basis Set:
	 Reference Energy          =    -313.5339414961165971 [Eh]
	 Singles Energy            =      -0.0000000000000002 [Eh]
	 Same-Spin Energy          =      -0.3167886861372946 [Eh]
	 Opposite-Spin Energy      =      -1.1265921808576043 [Eh]
	 Correlation Energy        =      -1.4433808669948991 [Eh]
	 Total Energy              =    -314.9773223631115115 [Eh]

	 ================> DF-SCS-MP2 Energies <==================
	-----------------------------------------------------------
	 SCS Same-Spin Scale       =       0.3333333333333333 [-]
	 SCS Opposite-Spin Scale   =       1.2000000000000000 [-]
	 SCS Same-Spin Energy      =      -0.1055962287124315 [Eh]
	 SCS Opposite-Spin Energy  =      -1.3519106170291251 [Eh]
	 SCS Correlation Energy    =      -1.4575068457415568 [Eh]
	 SCS Total Energy          =    -314.9914483418581312 [Eh]
	-----------------------------------------------------------

  -Total Gradient:
     Atom            X                  Y                   Z
    ------   -----------------  -----------------  -----------------
       1        0.000000163790     0.000000783361    -0.000000190706
       2       -0.000000516516    -0.000000304037     0.000000316329
       3       -0.000000005518    -0.000000481517    -0.000000455060
       4        0.000000352311    -0.000000017627     0.000000279187
       5        0.000000254669    -0.000000937388    -0.000001006639
       6       -0.000000729791     0.000000505741    -0.000000238424
       7       -0.000000159433    -0.000000381715     0.000000884888
       8        0.000000892614     0.000000697150     0.000000279411
       9       -0.000000429209    -0.000000758076    -0.000000299259
      10       -0.000000051434     0.000000374334     0.000000510569
      11        0.000000401915     0.000000090265    -0.000000179279
      12        0.000000131716     0.000000369844     0.000001728871
      13        0.000000217472     0.000000676051    -0.000001466891
      14       -0.000000917842    -0.000000404046     0.000000183159
      15        0.000000548594     0.000000590530     0.000000729225
      16       -0.000000059572     0.000000481614    -0.000000093158
      17        0.000000183167    -0.000000317733    -0.000000697604
      18        0.000000913993    -0.000001424965    -0.000001010927
      19        0.000000297742     0.000000391256     0.000001401623
      20       -0.000000670767     0.000000872592    -0.000000260668
      21       -0.000001611844     0.000000743562     0.000001150822
      22        0.000001073935    -0.000001246708     0.000000204900
      23       -0.000000176297    -0.000000035058    -0.000001479215
      24        0.000000133650     0.000001186414    -0.000001534683
      25        0.000000076514    -0.000000327128     0.000001737252
      26       -0.000000313861    -0.000001126715    -0.000000493724

  **** Optimization is complete! (in 41 steps) ****
    Final optimized geometry and variables:
    Molecular point group: c1

    Geometry (in Angstrom), charge = 0, multiplicity = 1:

    C           -2.826022758174     0.902616852252    -0.726751983363
    H           -1.909144805488     1.165478246063    -1.254495564379
    H           -2.933690334428     1.584413229221     0.118239834641
    H           -3.659155323926     1.078154934350    -1.407259179266
    C            2.931517873296    -0.919737027335    -0.801879946206
    H            3.751955544433    -1.596970539641    -0.563290079759
    H            3.154066298003    -0.451901172173    -1.761876158254
    H            2.029647691352    -1.516044806149    -0.927234760794
    C           -2.802888057688    -0.547597531081    -0.257405589267
    H           -2.684733485904    -1.204154773541    -1.123931123333
    H           -3.768549801046    -0.796331103789     0.189012282539
    C            2.762651783076     0.146351435780     0.277578694951
    H            2.602815256934    -0.328931223535     1.249927119177
    H            3.700554993441     0.698822516843     0.361246335863
    C           -1.695463710624    -0.864833125322     0.747355684619
    H           -1.790967612575    -1.913106901835     1.037919536614
    H           -1.852603615778    -0.277930315226     1.658115334301
    C           -0.279119816814    -0.600353826476     0.214915706749
    H           -0.285405904017    -0.661736846606    -0.878992246337
    H            0.393522588261    -1.387342475957     0.561175561352
    C            0.284857707111     0.750971315563     0.648778359154
    H           -0.446985340113     1.533618586668     0.437957415722
    H            0.410432238323     0.736563393606     1.736525442071
    C            1.617023261175     1.131166390807     0.004317393325
    H            1.481012339296     1.232867765037    -1.077490643555
    H            1.895860355883     2.121385790937     0.371511842747

*** Psi4 exiting successfully. Buy a developer a beer!
