                              Psi4 1.0.0 Driver

  ==> Input File <==

--------------------------------------------------------------------------
memory 60 Gb

molecule molecule_16_psi {
0 1
C            3.099006547908     1.422393834094     0.246400114423
H            4.031805928141     0.858300984396     0.282370616511
H            2.829090507052     1.681671974169     1.271101320842
H            3.287165311606     2.349156561516    -0.295121792071
C           -2.805559860584     1.314203845023    -0.443966146317
H           -2.165290617701     2.115889839682    -0.071241295924
H           -3.821135154974     1.703095028143    -0.514230437168
H           -2.476928443771     1.066556523468    -1.452556774108
C            1.995108829652     0.601002359409    -0.408584886827
H            2.271910268900     0.361398329374    -1.439494147086
H            1.082931422237     1.199774217399    -0.464177201530
C           -2.740673814090     0.103015014157     0.480655035475
H           -3.174875450009     0.366617736042     1.447628572226
H           -3.355630828850    -0.704121617518     0.073064106647
C            1.718796197777    -0.692332130037     0.348923641627
H            1.390085575394    -0.449540499637     1.363304080814
H            2.657251052050    -1.243764663604     0.458320948495
C            0.691441259124    -1.597054589825    -0.330553411114
H            0.541245419336    -2.490017315723     0.283090137512
H            1.100299774319    -1.940165199748    -1.285365483491
C           -0.662826508471    -0.932920434066    -0.577926844245
H           -0.543989054150    -0.120385884030    -1.297391672833
H           -1.333797680880    -1.660174338391    -1.045610871654
C           -1.318467392481    -0.409777038341     0.695685548881
H           -1.329988193916    -1.212379855329     1.439744817410
H           -0.714212161931     0.397878423048     1.119959148021
}

set globals {
  reference rhf
  g_convergence gau_verytight
  basis aug-cc-pvtz
  freeze_core true
  scf_type df
  mp_type df
}
optimize('mp2')
--------------------------------------------------------------------------

    Molecular point group: c1
  Charge       = 0
  Multiplicity = 1
  Basis Set: AUG-CC-PVTZ
  Basis Set:
  @DF-RHF Final Energy:  -313.54167519289251
    Total Energy =                       -313.5416751928925692
  Basis Set:
    Molecular point group: c1
  Basis Set: AUG-CC-PVTZ
  Basis Set:
  Basis Set:
	 Reference Energy          =    -313.5416751928925123 [Eh]
	 Singles Energy            =      -0.0000000000000002 [Eh]
	 Same-Spin Energy          =      -0.3165859258512380 [Eh]
	 Opposite-Spin Energy      =      -1.1256803360608185 [Eh]
	 Correlation Energy        =      -1.4422662619120568 [Eh]
	 Total Energy              =    -314.9839414548045511 [Eh]
	 SCS Total Energy          =    -314.9980202381158847 [Eh]
  Basis Set: AUG-CC-PVTZ
  Basis Set:
  @DF-RHF Final Energy:  -313.54167502286884
    Total Energy =                       -313.5416750228687874
  Basis Set:
  Basis Set: AUG-CC-PVTZ
  Basis Set:
  @DF-RHF Final Energy:  -313.54167340977301
    Total Energy =                       -313.5416734097731251
  @DF-RHF Final Energy:  -313.54167513852207
    Total Energy =                       -313.5416751385222369
  @DF-RHF Final Energy:  -313.54167430714148
    Total Energy =                       -313.5416743071417045
  @DF-RHF Final Energy:  -313.54167503077178
    Total Energy =                       -313.5416750307715574
  @DF-RHF Final Energy:  -313.54167510023535
    Total Energy =                       -313.5416751002354090
  @DF-RHF Final Energy:  -313.54167509097124
    Total Energy =                       -313.5416750909711823
  @DF-RHF Final Energy:  -313.54167509712317
    Total Energy =                       -313.5416750971230613
  @DF-RHF Final Energy:  -313.54167516437769
    Total Energy =                       -313.5416751643778639
  @DF-RHF Final Energy:  -313.54167505761063
    Total Energy =                       -313.5416750576105187
  @DF-RHF Final Energy:  -313.54167504963539
    Total Energy =                       -313.5416750496353870
  @DF-RHF Final Energy:  -313.54167507223855
    Total Energy =                       -313.5416750722387178
	 Singles Energy            =      -0.0000000000000000 [Eh]
	 Same-Spin Energy          =      -0.3165859897792012 [Eh]
	 Opposite-Spin Energy      =      -1.1256803907182649 [Eh]
	 Correlation Energy        =      -1.4422663804974660 [Eh]
	 Total Energy              =    -314.9839414527360191 [Eh]
	 SCS Total Energy          =    -314.9980202043602162 [Eh]
  Charge       = 0
  Multiplicity = 1
  Basis Set: AUG-CC-PVTZ
  Basis Set:

    Orbital Energies (a.u.)
    -----------------------

    Doubly Occupied:

       1A    -11.212971     2A    -11.212147     3A    -11.210657
       4A    -11.210197     5A    -11.209319     6A    -11.208781
       7A    -11.207174     8A    -11.206964     9A     -1.095637
      10A     -1.059514    11A     -1.008965    12A     -0.944629
      13A     -0.886957    14A     -0.831333    15A     -0.791241
      16A     -0.750697    17A     -0.642696    18A     -0.636444
      19A     -0.607656    20A     -0.591935    21A     -0.581496
      22A     -0.564984    23A     -0.543258    24A     -0.531515
      25A     -0.508101    26A     -0.500873    27A     -0.495955
      28A     -0.472700    29A     -0.467186    30A     -0.461435
      31A     -0.441862    32A     -0.439325    33A     -0.436871

  @DF-RHF Final Energy:  -313.54167513774036

   => Energetics <=

    Nuclear Repulsion Energy =            397.8848176434807442
    One-Electron Energy =               -1210.9100358766193040
    Two-Electron Energy =                 499.4835430953981472
    DFT Exchange-Correlation Energy =       0.0000000000000000
    Empirical Dispersion Energy =           0.0000000000000000
    PCM Polarization Energy =               0.0000000000000000
    EFP Energy =                            0.0000000000000000
    Total Energy =                       -313.5416751377403557
  Basis Set:
    Molecular point group: c1
  Basis Set: AUG-CC-PVTZ
  Basis Set:
  Basis Set:
	 Reference Energy          =    -313.5416751377403557 [Eh]
	 Singles Energy            =      -0.0000000000000002 [Eh]
	 Same-Spin Energy          =      -0.3165859657774995 [Eh]
	 Opposite-Spin Energy      =      -1.1256803482111222 [Eh]
	 Correlation Energy        =      -1.4422663139886218 [Eh]
	 Total Energy              =    -314.9839414517289811 [Eh]

	 ================> DF-SCS-MP2 Energies <==================
	-----------------------------------------------------------
	 SCS Same-Spin Scale       =       0.3333333333333333 [-]
	 SCS Opposite-Spin Scale   =       1.2000000000000000 [-]
	 SCS Same-Spin Energy      =      -0.1055286552591665 [Eh]
	 SCS Opposite-Spin Energy  =      -1.3508164178533466 [Eh]
	 SCS Correlation Energy    =      -1.4563450731125134 [Eh]
	 SCS Total Energy          =    -314.9980202108528715 [Eh]
	-----------------------------------------------------------

  -Total Gradient:
     Atom            X                  Y                   Z
    ------   -----------------  -----------------  -----------------
       1       -0.000000025683    -0.000000013125    -0.000000090264
       2        0.000000052238    -0.000000038351     0.000000025703
       3       -0.000000035917     0.000000027778     0.000000099240
       4        0.000000018430     0.000000033213     0.000000005272
       5        0.000000039920     0.000000003603    -0.000000026650
       6        0.000000006068     0.000000017381    -0.000000011350
       7       -0.000000038766    -0.000000011342    -0.000000007377
       8        0.000000015034    -0.000000018589    -0.000000000389
       9        0.000000045927     0.000000038480     0.000000071532
      10        0.000000001406     0.000000007724     0.000000071823
      11       -0.000000011131    -0.000000007070    -0.000000055701
      12        0.000000276959     0.000000049641    -0.000000325883
      13       -0.000000108554     0.000000111325     0.000000163200
      14       -0.000000060288    -0.000000088546    -0.000000075580
      15       -0.000000003267     0.000000002701    -0.000000059068
      16       -0.000000089009     0.000000057198     0.000000072100
      17        0.000000028902    -0.000000058493     0.000000012785
      18       -0.000000115324    -0.000000051343    -0.000000060065
      19       -0.000000013224     0.000000022421     0.000000002986
      20        0.000000032408     0.000000014298     0.000000043770
      21       -0.000000017345    -0.000000033354    -0.000000155800
      22       -0.000000041119    -0.000000135385     0.000000026327
      23        0.000000096013     0.000000101163     0.000000046955
      24       -0.000000170649    -0.000000037651     0.000000210990
      25       -0.000000048458    -0.000000134620     0.000000076429
      26        0.000000165428     0.000000140946    -0.000000060986

  **** Optimization is complete! (in 14 steps) ****
    Final optimized geometry and variables:
    Molecular point group: c1

    Geometry (in Angstrom), charge = 0, multiplicity = 1:

    C            3.098993291522     1.422399382745     0.246400453313
    H            4.031795273405     0.858311417327     0.282370283272
    H            2.829075723140     1.681675320889     1.271101458479
    H            3.287146960314     2.349163237110    -0.295120815439
    C           -2.805547370087     1.314211826343    -0.443962956966
    H           -2.165271495805     2.115892247526    -0.071238288435
    H           -3.821120193409     1.703109599311    -0.514222194068
    H           -2.476921580896     1.066564227076    -1.452555001430
    C            1.995099946338     0.601001820058    -0.408584724183
    H            2.271903473938     0.361396792050    -1.439492454036
    H            1.082920492527     1.199769112325    -0.464178151844
    C           -2.740666228595     0.103020033742     0.480654729677
    H           -3.174865759548     0.366623288881     1.447629248345
    H           -3.355627600037    -0.704112806676     0.073062599700
    C            1.718790873534    -0.692332533138     0.348926222017
    H            1.390073520253    -0.449539881951     1.363303367488
    H            2.657246780824    -1.243760904667     0.458328990686
    C            0.691443348910    -1.597059911752    -0.330555499443
    H            0.541249574628    -2.490024357376     0.283085197737
    H            1.100306375091    -1.940165622278    -1.285366695228
    C           -0.662826258259    -0.932930814969    -0.577929160947
    H           -0.543990858829    -0.120400717010    -1.297398214740
    H           -1.333797508397    -1.660188041711    -1.045607210715
    C           -1.318462289650    -0.409780129737     0.695683539973
    H           -1.329986020589    -1.212381283689     1.439744375406
    H           -0.714200137193     0.397872750989     1.119952917201

*** Psi4 exiting successfully. Buy a developer a beer!
