                              Psi4 1.0.0 Driver

  ==> Input File <==

--------------------------------------------------------------------------
memory 60 Gb

molecule molecule_52_psi {
0 1
C           -3.162566437043    -0.835635871134    -0.225579744194
H           -3.999278712698    -1.301935668132     0.293995929101
H           -2.380848544276    -1.587688167282    -0.333408585921
H           -3.499838648871    -0.561481945284    -1.226766755429
C            3.162665418142     0.835534901784     0.225450804369
H            2.381017569067     1.587652175032     0.333287039390
H            3.999382288694     1.301740678927    -0.294193575405
H            3.499971380468     0.561400483444     1.226626678403
C           -2.658716085652     0.389345111138     0.529083426026
H           -2.288780048761     0.088555765111     1.511404165064
H           -3.493689555587     1.068602092969     0.714571892135
C            2.658667287603    -0.389441770544    -0.529118218552
H            2.288699120445    -0.088673449598    -1.511429977189
H            3.493564371323    -1.068783576171    -0.714620276273
C           -1.570472899766     1.152489579518    -0.225771760101
H           -1.244139519019     2.002188980138     0.381150091764
H           -2.004992289973     1.571346182595    -1.138269322878
C           -0.346650446594     0.316302333772    -0.600343786424
H            0.357784736688     0.960467489108    -1.132096671135
H           -0.630822804085    -0.469634545420    -1.306538016463
C            0.346665456630    -0.316140133293     0.600440161578
H            0.630934771090     0.469806959660     1.306581386653
H           -0.357794035674    -0.960222760476     1.132260779553
C            1.570401548386    -1.152446056870     0.225847814260
H            2.004942226847    -1.571280467735     1.138343772005
H            1.243961020068    -2.002156605180    -0.381002106599
}

set globals {
  reference rhf
  g_convergence gau_verytight
  basis aug-cc-pvtz
  freeze_core true
  scf_type df
  mp_type df
}
optimize('mp2')
--------------------------------------------------------------------------

    Molecular point group: c1
  Charge       = 0
  Multiplicity = 1
  Basis Set: AUG-CC-PVTZ
  Basis Set:
  @DF-RHF Final Energy:  -313.53959596612327
    Total Energy =                       -313.5395959661230449
  Basis Set:
    Molecular point group: c1
  Basis Set: AUG-CC-PVTZ
  Basis Set:
  Basis Set:
	 Reference Energy          =    -313.5395959661232723 [Eh]
	 Singles Energy            =      -0.0000000000000000 [Eh]
	 Same-Spin Energy          =      -0.3172130420914347 [Eh]
	 Opposite-Spin Energy      =      -1.1264542788436005 [Eh]
	 Correlation Energy        =      -1.4436673209350352 [Eh]
	 Total Energy              =    -314.9832632870583211 [Eh]
	 SCS Total Energy          =    -314.9970787814327196 [Eh]
  Basis Set: AUG-CC-PVTZ
  Basis Set:
  @DF-RHF Final Energy:  -313.53959589225553
    Total Energy =                       -313.5395958922555337
  Basis Set:
  Basis Set: AUG-CC-PVTZ
  Basis Set:
  @DF-RHF Final Energy:  -313.53959594403079
    Total Energy =                       -313.5395959440306797
  @DF-RHF Final Energy:  -313.53959597454389
    Total Energy =                       -313.5395959745438859
  @DF-RHF Final Energy:  -313.53959595639424
    Total Energy =                       -313.5395959563941233
  @DF-RHF Final Energy:  -313.53959595120926
    Total Energy =                       -313.5395959512092077
  @DF-RHF Final Energy:  -313.53959610347215
    Total Energy =                       -313.5395961034718653
  @DF-RHF Final Energy:  -313.53959604886842
    Total Energy =                       -313.5395960488684182
  @DF-RHF Final Energy:  -313.53959617045444
    Total Energy =                       -313.5395961704548426
  @DF-RHF Final Energy:  -313.53959601696812
    Total Energy =                       -313.5395960169682894
  @DF-RHF Final Energy:  -313.53959604206455
    Total Energy =                       -313.5395960420646588
  @DF-RHF Final Energy:  -313.53959597566364
    Total Energy =                       -313.5395959756635875
  @DF-RHF Final Energy:  -313.53959604559998
    Total Energy =                       -313.5395960456000921
  @DF-RHF Final Energy:  -313.53959600701961
    Total Energy =                       -313.5395960070192700
  @DF-RHF Final Energy:  -313.53959596780447
    Total Energy =                       -313.5395959678045870
  @DF-RHF Final Energy:  -313.53959611911495
    Total Energy =                       -313.5395961191147762
	 Singles Energy            =      -0.0000000000000001 [Eh]
	 Same-Spin Energy          =      -0.3172131086110755 [Eh]
	 Opposite-Spin Energy      =      -1.1264540573936848 [Eh]
	 Correlation Energy        =      -1.4436671660047604 [Eh]
	 Total Energy              =    -314.9832632851197332 [Eh]
	 SCS Total Energy          =    -314.9970786908577338 [Eh]
  Charge       = 0
  Multiplicity = 1
  Basis Set: AUG-CC-PVTZ
  Basis Set:

    Orbital Energies (a.u.)
    -----------------------

    Doubly Occupied:

       1A    -11.211922     2A    -11.211922     3A    -11.210825
       4A    -11.210808     5A    -11.209279     6A    -11.208666
       7A    -11.206901     8A    -11.206901     9A     -1.095655
      10A     -1.060206    11A     -1.002824    12A     -0.948306
      13A     -0.887390    14A     -0.843270    15A     -0.780551
      16A     -0.744414    17A     -0.650353    18A     -0.630363
      19A     -0.614610    20A     -0.601890    21A     -0.569441
      22A     -0.557764    23A     -0.540744    24A     -0.535761
      25A     -0.519589    26A     -0.504112    27A     -0.488776
      28A     -0.471140    29A     -0.466127    30A     -0.458222
      31A     -0.448941    32A     -0.437298    33A     -0.432800

  @DF-RHF Final Energy:  -313.53959602312744

   => Energetics <=

    Nuclear Repulsion Energy =            399.6622202503210133
    One-Electron Energy =               -1214.4680874792088616
    Two-Electron Energy =                 501.2662712057604040
    DFT Exchange-Correlation Energy =       0.0000000000000000
    Empirical Dispersion Energy =           0.0000000000000000
    PCM Polarization Energy =               0.0000000000000000
    EFP Energy =                            0.0000000000000000
    Total Energy =                       -313.5395960231273875
  Basis Set:
    Molecular point group: c1
  Basis Set: AUG-CC-PVTZ
  Basis Set:
  Basis Set:
	 Reference Energy          =    -313.5395960231274444 [Eh]
	 Singles Energy            =      -0.0000000000000002 [Eh]
	 Same-Spin Energy          =      -0.3172130597735234 [Eh]
	 Opposite-Spin Energy      =      -1.1264542055427311 [Eh]
	 Correlation Energy        =      -1.4436672653162548 [Eh]
	 Total Energy              =    -314.9832632884437089 [Eh]

	 ================> DF-SCS-MP2 Energies <==================
	-----------------------------------------------------------
	 SCS Same-Spin Scale       =       0.3333333333333333 [-]
	 SCS Opposite-Spin Scale   =       1.2000000000000000 [-]
	 SCS Same-Spin Energy      =      -0.1057376865911745 [Eh]
	 SCS Opposite-Spin Energy  =      -1.3517450466512773 [Eh]
	 SCS Correlation Energy    =      -1.4574827332424520 [Eh]
	 SCS Total Energy          =    -314.9970787563698877 [Eh]
	-----------------------------------------------------------

  -Total Gradient:
     Atom            X                  Y                   Z
    ------   -----------------  -----------------  -----------------
       1       -0.000000033270     0.000000148391     0.000000130482
       2       -0.000000067085    -0.000000014595     0.000000063541
       3        0.000000105277    -0.000000118497    -0.000000024382
       4       -0.000000048202     0.000000018973    -0.000000141088
       5        0.000000036974    -0.000000081544    -0.000000127224
       6       -0.000000121591     0.000000124745     0.000000005567
       7        0.000000097836     0.000000016069    -0.000000083201
       8        0.000000059147    -0.000000038332     0.000000199293
       9        0.000000026082    -0.000000164279    -0.000000167458
      10        0.000000077126    -0.000000046230     0.000000148814
      11       -0.000000092591     0.000000093339    -0.000000004334
      12        0.000000081782     0.000000152460     0.000000315719
      13       -0.000000109511     0.000000056075    -0.000000300037
      14        0.000000192683    -0.000000119512     0.000000017699
      15        0.000000185316    -0.000000150083     0.000000105612
      16        0.000000012066     0.000000105470     0.000000062100
      17       -0.000000072903     0.000000077471    -0.000000179468
      18       -0.000000089961     0.000000108970     0.000000169803
      19       -0.000000001493     0.000000028854    -0.000000011066
      20       -0.000000060611    -0.000000077727    -0.000000153504
      21       -0.000000075484    -0.000000085220    -0.000000287387
      22        0.000000055679     0.000000275574     0.000000185235
      23       -0.000000233413    -0.000000083157     0.000000157656
      24       -0.000000034617     0.000000240674    -0.000000194475
      25        0.000000194383    -0.000000197597     0.000000355535
      26       -0.000000083622    -0.000000270289    -0.000000243433

  **** Optimization is complete! (in 17 steps) ****
    Final optimized geometry and variables:
    Molecular point group: c1

    Geometry (in Angstrom), charge = 0, multiplicity = 1:

    C           -3.162607368200    -0.835589391283    -0.225521891095
    H           -3.999322509570    -1.301850308374     0.294078666455
    H           -2.380919254674    -1.587667887557    -0.333352064562
    H           -3.499889912370    -0.561441591614    -1.226703553532
    C            3.162618117096     0.835578037676     0.225508994990
    H            2.380938115724     1.587664404535     0.333338349054
    H            3.999335316550     1.301827931966    -0.294097406447
    H            3.499902115466     0.561432124364     1.226690213910
    C           -2.658692123203     0.389388958754     0.529102837368
    H           -2.288739771157     0.088608338126     1.511417605736
    H           -3.493630593291     1.068682489384     0.714600153991
    C            2.658687129938    -0.389399427428    -0.529106457337
    H            2.288731924632    -0.088620537513    -1.511420398507
    H            3.493617510451    -1.068702113995    -0.714604964249
    C           -1.570442446619     1.152469897836    -0.225807108278
    H           -1.244059889062     2.002177229434     0.381076673286
    H           -2.004973019533     1.571310013536    -1.138304163596
    C           -0.346656979198     0.316230771741    -0.600387189821
    H            0.357787158127     0.960363193476    -1.132167301936
    H           -0.630869826685    -0.469708374223    -1.306559883091
    C            0.346658694070    -0.316212707597     0.600397290565
    H            0.630882588183     0.469727937638     1.306563664957
    H           -0.357788280577    -0.960335609631     1.132185372513
    C            1.570434308582    -1.152465290675     0.225814432166
    H            2.004966766410    -1.571304527687     1.138310932630
    H            1.244039509595    -2.002172821062    -0.381062714664

*** Psi4 exiting successfully. Buy a developer a beer!
