                              Psi4 1.0.0 Driver

  ==> Input File <==

--------------------------------------------------------------------------
memory 60 Gb

molecule molecule_75_psi {
0 1
C            3.000972216099    -1.043579928721    -0.008215666224
H            2.854007407967    -1.317942990772    -1.054001240668
H            2.241438847646    -1.555676472929     0.582355638666
H            3.973010912524    -1.424277917143     0.305234454832
C           -3.000964954739     1.043587960745     0.008236816092
H           -2.854012286517     1.317931556115     1.054028682110
H           -3.972997265677     1.424296627713    -0.305218949494
H           -2.241421478719     1.555690354565    -0.582315548068
C            2.922543625175     0.467816338950     0.174214608488
H            3.756084914074     0.937326979258    -0.353462733076
H            3.051134617111     0.709997300231     1.232811548070
C           -2.922543411094    -0.467805271918    -0.174218671785
H           -3.756089123025    -0.937320581217     0.353446905135
H           -3.051131028997    -0.709967616871    -1.232820072962
C            1.614271343185     1.090027472258    -0.313257975566
H            1.518208228295     0.929835259334    -1.391967060852
H            1.678235506963     2.170660564640    -0.169442271920
C            0.361439937211     0.548321551109     0.391317417740
H           -0.338203514869     1.363259222074     0.582336035925
H            0.639945348499     0.155388461376     1.375120857939
C           -0.361442297692    -0.548334629998    -0.391325499477
H           -0.639943515110    -0.155405692148    -1.375131748959
H            0.338200068797    -1.363274977033    -0.582337823875
C           -1.614276881927    -1.090033716130     0.313247584170
H           -1.678252441020    -2.170664982777     0.169421809864
H           -1.518210152049    -0.929852430827     1.391958026905
}

set globals {
  reference rhf
  g_convergence gau_verytight
  basis aug-cc-pvtz
  freeze_core true
  scf_type df
  mp_type df
}
optimize('mp2')
--------------------------------------------------------------------------

    Molecular point group: c1
  Charge       = 0
  Multiplicity = 1
  Basis Set: AUG-CC-PVTZ
  Basis Set:
  @DF-RHF Final Energy:  -313.53389199370264
    Total Energy =                       -313.5338919937026390
  Basis Set:
    Molecular point group: c1
  Basis Set: AUG-CC-PVTZ
  Basis Set:
  Basis Set:
	 Reference Energy          =    -313.5338919937026390 [Eh]
	 Singles Energy            =      -0.0000000000000002 [Eh]
	 Same-Spin Energy          =      -0.3167519595694093 [Eh]
	 Opposite-Spin Energy      =      -1.1265250028126839 [Eh]
	 Correlation Energy        =      -1.4432769623820934 [Eh]
	 Total Energy              =    -314.9771689560847108 [Eh]
	 SCS Total Energy          =    -314.9913059836010234 [Eh]
  Basis Set: AUG-CC-PVTZ
  Basis Set:
  @DF-RHF Final Energy:  -313.53389196697765
    Total Energy =                       -313.5338919669776487
  Basis Set:
  Basis Set: AUG-CC-PVTZ
  Basis Set:
  @DF-RHF Final Energy:  -313.53389196643298
    Total Energy =                       -313.5338919664329751
  @DF-RHF Final Energy:  -313.53389181200561
    Total Energy =                       -313.5338918120058338
  @DF-RHF Final Energy:  -313.53389194368219
    Total Energy =                       -313.5338919436819083
  @DF-RHF Final Energy:  -313.53389192431086
    Total Energy =                       -313.5338919243109785
  @DF-RHF Final Energy:  -313.53389194858778
    Total Energy =                       -313.5338919485876659
  @DF-RHF Final Energy:  -313.53389198512173
    Total Energy =                       -313.5338919851213859
  @DF-RHF Final Energy:  -313.53389196884063
    Total Energy =                       -313.5338919688404076
  @DF-RHF Final Energy:  -313.53389197489594
    Total Energy =                       -313.5338919748957096
	 Singles Energy            =      -0.0000000000000001 [Eh]
	 Same-Spin Energy          =      -0.3167519741289845 [Eh]
	 Opposite-Spin Energy      =      -1.1265250046426305 [Eh]
	 Correlation Energy        =      -1.4432769787716153 [Eh]
	 Total Energy              =    -314.9771689536675581 [Eh]
	 SCS Total Energy          =    -314.9913059718434170 [Eh]
  Charge       = 0
  Multiplicity = 1
  Basis Set: AUG-CC-PVTZ
  Basis Set:

    Orbital Energies (a.u.)
    -----------------------

    Doubly Occupied:

       1A    -11.213029     2A    -11.213029     3A    -11.210097
       4A    -11.210047     5A    -11.209264     6A    -11.208699
       7A    -11.206830     8A    -11.206830     9A     -1.092250
      10A     -1.059896    11A     -1.003800    12A     -0.948502
      13A     -0.891867    14A     -0.826019    15A     -0.771823
      16A     -0.771642    17A     -0.648896    18A     -0.624949
      19A     -0.601723    20A     -0.600966    21A     -0.581546
      22A     -0.559969    23A     -0.541526    24A     -0.524439
      25A     -0.518570    26A     -0.504630    27A     -0.483185
      28A     -0.482665    29A     -0.462931    30A     -0.457457
      31A     -0.454484    32A     -0.435026    33A     -0.426881

  @DF-RHF Final Energy:  -313.53389194701003

   => Energetics <=

    Nuclear Repulsion Energy =            397.2782520890868909
    One-Electron Energy =               -1209.7173551484261225
    Two-Electron Energy =                 498.9052111123294821
    DFT Exchange-Correlation Energy =       0.0000000000000000
    Empirical Dispersion Energy =           0.0000000000000000
    PCM Polarization Energy =               0.0000000000000000
    EFP Energy =                            0.0000000000000000
    Total Energy =                       -313.5338919470097494
  Basis Set:
    Molecular point group: c1
  Basis Set: AUG-CC-PVTZ
  Basis Set:
  Basis Set:
	 Reference Energy          =    -313.5338919470100336 [Eh]
	 Singles Energy            =      -0.0000000000000001 [Eh]
	 Same-Spin Energy          =      -0.3167519685812596 [Eh]
	 Opposite-Spin Energy      =      -1.1265250395821556 [Eh]
	 Correlation Energy        =      -1.4432770081634152 [Eh]
	 Total Energy              =    -314.9771689551734539 [Eh]

	 ================> DF-SCS-MP2 Energies <==================
	-----------------------------------------------------------
	 SCS Same-Spin Scale       =       0.3333333333333333 [-]
	 SCS Opposite-Spin Scale   =       1.2000000000000000 [-]
	 SCS Same-Spin Energy      =      -0.1055839895270865 [Eh]
	 SCS Opposite-Spin Energy  =      -1.3518300474985867 [Eh]
	 SCS Correlation Energy    =      -1.4574140370256732 [Eh]
	 SCS Total Energy          =    -314.9913059840357050 [Eh]
	-----------------------------------------------------------

  -Total Gradient:
     Atom            X                  Y                   Z
    ------   -----------------  -----------------  -----------------
       1        0.000000067973     0.000000365520     0.000000061242
       2       -0.000000095980    -0.000000212857    -0.000000538551
       3       -0.000000478351    -0.000000350501     0.000000246760
       4        0.000000418909    -0.000000029035     0.000000131791
       5        0.000000021008    -0.000000114467     0.000000000475
       6        0.000000016030     0.000000039336     0.000000100707
       7       -0.000000037574     0.000000044215    -0.000000029361
       8        0.000000073795     0.000000061273    -0.000000052205
       9       -0.000000562462    -0.000000401308    -0.000000176632
      10        0.000000438168     0.000000249131    -0.000000375830
      11        0.000000155256     0.000000170668     0.000000611615
      12       -0.000000094369    -0.000000048280     0.000000040859
      13       -0.000000039203     0.000000006844     0.000000010304
      14        0.000000006243     0.000000002926    -0.000000059269
      15       -0.000000070309    -0.000000422329     0.000000691631
      16       -0.000000003030    -0.000000068842    -0.000000759475
      17        0.000000152501     0.000000486980     0.000000155553
      18        0.000000171795    -0.000000107856    -0.000000403833
      19       -0.000000271520     0.000000143932    -0.000000006786
      20        0.000000187662    -0.000000025535     0.000000350052
      21        0.000000072220     0.000000270053     0.000000216007
      22       -0.000000018916     0.000000129548    -0.000000344852
      23        0.000000032172    -0.000000160096    -0.000000014120
      24       -0.000000124957    -0.000000060232     0.000000041577
      25        0.000000005268     0.000000038632     0.000000001556
      26       -0.000000022329    -0.000000007720     0.000000100785

  **** Optimization is complete! (in 11 steps) ****
    Final optimized geometry and variables:
    Molecular point group: c1

    Geometry (in Angstrom), charge = 0, multiplicity = 1:

    C            3.000966966188    -1.043583516426    -0.008227000435
    H            2.854007164000    -1.317936943281    -1.054015745095
    H            2.241428806908    -1.555682522529     0.582335908563
    H            3.973002868270    -1.424286902248     0.305225061920
    C           -3.000966839795     1.043583815042     0.008224634599
    H           -2.854009803784     1.317938042049     1.054013468165
    H           -3.973001624279     1.424287408276    -0.305230489977
    H           -2.241426824314     1.555681865426    -0.582336654923
    C            2.922543431193     0.467811379858     0.174216111655
    H            3.756086240950     0.937323829901    -0.353457168260
    H            3.051134892965     0.709982880766     1.232815136651
    C           -2.922543505013    -0.467811343071    -0.174216451968
    H           -3.756087207202    -0.937322802927     0.353456302942
    H           -3.051133382503    -0.709984391677    -1.232815369048
    C            1.614273715662     1.090031354050    -0.313251547559
    H            1.518208263602     0.929846829496    -1.391961744013
    H            1.678243725560     2.170663157278    -0.169428282632
    C            0.361441424692     0.548327018936     0.391322760151
    H           -0.338202068566     1.363265543751     0.582337823662
    H            0.639944612036     0.155395632940     1.375127568728
    C           -0.361441066814    -0.548328126613    -0.391321880657
    H           -0.639944415617    -0.155396979332    -1.375126958075
    H            0.338202298648    -1.363266759288    -0.582336751580
    C           -1.614274104476    -1.090030696539     0.313253514039
    H           -1.678244544742    -2.170662844801     0.169432780583
    H           -1.518209259568    -0.929843677329     1.391963447519

*** Psi4 exiting successfully. Buy a developer a beer!
