                              Psi4 1.0.0 Driver

  ==> Input File <==

--------------------------------------------------------------------------
memory 60 Gb

molecule molecule_23_psi {
0 1
C           -3.824194642259     1.059535830234     0.004034931683
H           -3.554655199643     1.711922104558    -0.827447082753
H           -3.684415215350     1.623760332272     0.926962580894
H           -4.883854303854     0.821884756152    -0.086261200279
C            3.482985447271     0.789943051930     0.672456396531
H            3.204496805486     0.214045602997     1.554128134406
H            3.027189912286     1.777677850562     0.761102305036
H            4.565023679483     0.917981870528     0.690058130386
C           -2.963153606831    -0.197473789063     0.004652893021
H           -3.131714178256    -0.761160394317    -0.916873433907
H           -3.264245505114    -0.851756238062     0.827083321667
C            3.029481111464     0.103073935556    -0.611412322001
H            3.417396940752     0.655219350091    -1.470312274472
H            3.463316841592    -0.899339628117    -0.664318225847
C           -1.477276506804     0.114462855885     0.132681862681
H           -1.302533167826     0.666877866730     1.062486889164
H           -1.184071992250     0.779880695297    -0.683638183056
C           -0.608661782244    -1.138173069000     0.123056087973
H           -0.732109227847    -1.653520209097    -0.835028599140
H           -0.973543608919    -1.823655790865     0.893516281198
C            0.874218902029    -0.860377478806     0.358515896195
H            0.992329904138    -0.375886607914     1.331467128058
H            1.414613088209    -1.810577160695     0.415424474907
C            1.510817555403    -0.002647665163    -0.731261848750
H            1.254268468183    -0.429634147106    -1.705896761162
H            1.084165303705     1.003889094703    -0.709545029811
}

set globals {
  reference rhf
  g_convergence gau_verytight
  basis aug-cc-pvtz
  freeze_core true
  scf_type df
  mp_type df
}
optimize('mp2')
--------------------------------------------------------------------------

    Molecular point group: c1
  Charge       = 0
  Multiplicity = 1
  Basis Set: AUG-CC-PVTZ
  Basis Set:
  @DF-RHF Final Energy:  -313.54401242089369
    Total Energy =                       -313.5440124208937505
  Basis Set:
    Molecular point group: c1
  Basis Set: AUG-CC-PVTZ
  Basis Set:
  Basis Set:
	 Reference Energy          =    -313.5440124208936936 [Eh]
	 Singles Energy            =      -0.0000000000000006 [Eh]
	 Same-Spin Energy          =      -0.3155226523837630 [Eh]
	 Opposite-Spin Energy      =      -1.1243043269961477 [Eh]
	 Correlation Energy        =      -1.4398269793799112 [Eh]
	 Total Energy              =    -314.9838394002736095 [Eh]
	 SCS Total Energy          =    -314.9983518307503232 [Eh]
  Basis Set: AUG-CC-PVTZ
  Basis Set:
  @DF-RHF Final Energy:  -313.54401193298668
    Total Energy =                       -313.5440119329866775
  Basis Set:
  Basis Set: AUG-CC-PVTZ
  Basis Set:
  @DF-RHF Final Energy:  -313.54401203231953
    Total Energy =                       -313.5440120323193014
  @DF-RHF Final Energy:  -313.54401194597449
    Total Energy =                       -313.5440119459745461
  @DF-RHF Final Energy:  -313.54401219574970
    Total Energy =                       -313.5440121957498718
  @DF-RHF Final Energy:  -313.54401200955368
    Total Energy =                       -313.5440120095537395
  @DF-RHF Final Energy:  -313.54401204210933
    Total Energy =                       -313.5440120421089318
  @DF-RHF Final Energy:  -313.54401215553156
    Total Energy =                       -313.5440121555315613
  @DF-RHF Final Energy:  -313.54401215954226
    Total Energy =                       -313.5440121595424330
  @DF-RHF Final Energy:  -313.54401046707687
    Total Energy =                       -313.5440104670768164
  @DF-RHF Final Energy:  -313.54401213208592
    Total Energy =                       -313.5440121320858680
  @DF-RHF Final Energy:  -313.54401206379401
    Total Energy =                       -313.5440120637936730
  @DF-RHF Final Energy:  -313.54401214790670
    Total Energy =                       -313.5440121479065283
  @DF-RHF Final Energy:  -313.54401222070010
    Total Energy =                       -313.5440122207000400
  @DF-RHF Final Energy:  -313.54401205768659
    Total Energy =                       -313.5440120576866434
  @DF-RHF Final Energy:  -313.54401209950436
    Total Energy =                       -313.5440120995043571
  @DF-RHF Final Energy:  -313.54401150797048
    Total Energy =                       -313.5440115079703673
  @DF-RHF Final Energy:  -313.54401212574800
    Total Energy =                       -313.5440121257482815
  @DF-RHF Final Energy:  -313.54401211111735
    Total Energy =                       -313.5440121111175245
  @DF-RHF Final Energy:  -313.54401207920273
    Total Energy =                       -313.5440120792025596
  @DF-RHF Final Energy:  -313.54401207438576
    Total Energy =                       -313.5440120743856482
  @DF-RHF Final Energy:  -313.54401212487011
    Total Energy =                       -313.5440121248701644
  @DF-RHF Final Energy:  -313.54401219056524
    Total Energy =                       -313.5440121905651836
  @DF-RHF Final Energy:  -313.54401130105754
    Total Energy =                       -313.5440113010573100
  @DF-RHF Final Energy:  -313.54401216192082
    Total Energy =                       -313.5440121619205911
  @DF-RHF Final Energy:  -313.54401224173921
    Total Energy =                       -313.5440122417393241
  @DF-RHF Final Energy:  -313.54401222736635
    Total Energy =                       -313.5440122273661814
  @DF-RHF Final Energy:  -313.54401206406897
    Total Energy =                       -313.5440120640690793
  @DF-RHF Final Energy:  -313.54401219160536
    Total Energy =                       -313.5440121916053045
  @DF-RHF Final Energy:  -313.54401179393255
    Total Energy =                       -313.5440117939324409
  @DF-RHF Final Energy:  -313.54401199036488
    Total Energy =                       -313.5440119903649361
  @DF-RHF Final Energy:  -313.54401204369685
    Total Energy =                       -313.5440120436968527
  @DF-RHF Final Energy:  -313.54401210392933
    Total Energy =                       -313.5440121039293899
  @DF-RHF Final Energy:  -313.54401215005947
    Total Energy =                       -313.5440121500591886
  @DF-RHF Final Energy:  -313.54401199391100
    Total Energy =                       -313.5440119939108286
  @DF-RHF Final Energy:  -313.54401212016791
    Total Energy =                       -313.5440121201681904
  @DF-RHF Final Energy:  -313.54401162879833
    Total Energy =                       -313.5440116287981027
	 Singles Energy            =      -0.0000000000000007 [Eh]
	 Same-Spin Energy          =      -0.3155226972410879 [Eh]
	 Opposite-Spin Energy      =      -1.1243050735938884 [Eh]
	 Correlation Energy        =      -1.4398277708349771 [Eh]
	 Total Energy              =    -314.9838393996333252 [Eh]
	 SCS Total Energy          =    -314.9983519495247037 [Eh]
  Charge       = 0
  Multiplicity = 1
  Basis Set: AUG-CC-PVTZ
  Basis Set:

    Orbital Energies (a.u.)
    -----------------------

    Doubly Occupied:

       1A    -11.212625     2A    -11.212228     3A    -11.210466
       4A    -11.210000     5A    -11.209470     6A    -11.209232
       7A    -11.206948     8A    -11.206402     9A     -1.094031
      10A     -1.061032    11A     -1.010687    12A     -0.944056
      13A     -0.887239    14A     -0.819457    15A     -0.793314
      16A     -0.761188    17A     -0.647793    18A     -0.626035
      19A     -0.610366    20A     -0.595946    21A     -0.573518
      22A     -0.561628    23A     -0.545356    24A     -0.527050
      25A     -0.522864    26A     -0.495874    27A     -0.487105
      28A     -0.472505    29A     -0.467622    30A     -0.460658
      31A     -0.450040    32A     -0.439778    33A     -0.434348

  @DF-RHF Final Energy:  -313.54401213104671

   => Energetics <=

    Nuclear Repulsion Energy =            386.9354302263422483
    One-Electron Energy =               -1189.0251662727230269
    Two-Electron Energy =                 488.5457239153342357
    DFT Exchange-Correlation Energy =       0.0000000000000000
    Empirical Dispersion Energy =           0.0000000000000000
    PCM Polarization Energy =               0.0000000000000000
    EFP Energy =                            0.0000000000000000
    Total Energy =                       -313.5440121310464860
  Basis Set:
    Molecular point group: c1
  Basis Set: AUG-CC-PVTZ
  Basis Set:
  Basis Set:
	 Reference Energy          =    -313.5440121310467134 [Eh]
	 Singles Energy            =      -0.0000000000000007 [Eh]
	 Same-Spin Energy          =      -0.3155226696043695 [Eh]
	 Opposite-Spin Energy      =      -1.1243046014261731 [Eh]
	 Correlation Energy        =      -1.4398272710305433 [Eh]
	 Total Energy              =    -314.9838394020772512 [Eh]

	 ================> DF-SCS-MP2 Energies <==================
	-----------------------------------------------------------
	 SCS Same-Spin Scale       =       0.3333333333333333 [-]
	 SCS Opposite-Spin Scale   =       1.2000000000000000 [-]
	 SCS Same-Spin Energy      =      -0.1051742232014565 [Eh]
	 SCS Opposite-Spin Energy  =      -1.3491655217114076 [Eh]
	 SCS Correlation Energy    =      -1.4543397449128648 [Eh]
	 SCS Total Energy          =    -314.9983518759595995 [Eh]
	-----------------------------------------------------------

  -Total Gradient:
     Atom            X                  Y                   Z
    ------   -----------------  -----------------  -----------------
       1        0.000000121460    -0.000000074860    -0.000000011863
       2        0.000000009028     0.000000046411    -0.000000052080
       3        0.000000005398     0.000000069501     0.000000084362
       4       -0.000000122085    -0.000000032001     0.000000002244
       5        0.000000019561     0.000000017397    -0.000000010895
       6        0.000000027591     0.000000003719     0.000000002453
       7        0.000000002920    -0.000000010383     0.000000012511
       8       -0.000000036481     0.000000006800     0.000000003525
       9        0.000000065396     0.000000085835    -0.000000056447
      10       -0.000000007534    -0.000000033036    -0.000000046343
      11        0.000000002778    -0.000000060396     0.000000054780
      12        0.000000080906    -0.000000011022    -0.000000072959
      13       -0.000000015454    -0.000000035926     0.000000058997
      14       -0.000000010931     0.000000048807    -0.000000009114
      15        0.000000043474    -0.000000042625    -0.000000008839
      16        0.000000007034    -0.000000005109    -0.000000030071
      17       -0.000000010906    -0.000000017977     0.000000015288
      18       -0.000000138448     0.000000105214     0.000000117709
      19       -0.000000006522     0.000000008617    -0.000000045262
      20       -0.000000020217    -0.000000043852     0.000000044253
      21       -0.000000072790     0.000000047937    -0.000000304232
      22       -0.000000027719     0.000000082138     0.000000082051
      23        0.000000080206    -0.000000160319    -0.000000004733
      24       -0.000000010444    -0.000000018523     0.000000144561
      25        0.000000017381     0.000000060709     0.000000099099
      26       -0.000000003597    -0.000000037059    -0.000000068995

  **** Optimization is complete! (in 38 steps) ****
    Final optimized geometry and variables:
    Molecular point group: c1

    Geometry (in Angstrom), charge = 0, multiplicity = 1:

    C           -3.824153945783     1.059655602991     0.004066620508
    H           -3.554583399256     1.712061324813    -0.827392605597
    H           -3.684366834023     1.623847579064     0.927015242477
    H           -4.883821750345     0.822042117531    -0.086249547131
    C            3.482958011704     0.789894264071     0.672456062277
    H            3.204438221798     0.214026075463     1.554137714804
    H            3.027162967551     1.777634146981     0.761055496316
    H            4.564996558333     0.917929374192     0.690089083152
    C           -2.963156364462    -0.197384261401     0.004653422705
    H           -3.131730785321    -0.761038437943    -0.916893543449
    H           -3.264281610568    -0.851683805278     0.827062031306
    C            3.029492916563     0.102986350972    -0.611406021491
    H            3.417436872833     0.655103838486    -1.470311769156
    H            3.463327609091    -0.899431002855    -0.664266498856
    C           -1.477269081298     0.114499050875     0.132703780933
    H           -1.302514666950     0.666884302518     1.062528871795
    H           -1.184035951353     0.779936529241    -0.683594505201
    C           -0.608690047530    -1.138162129729     0.123045900903
    H           -0.732161341946    -1.653491787443    -0.835048515632
    H           -0.973585346717    -1.823648129773     0.893500071327
    C            0.874201824148    -0.860416934641     0.358498250554
    H            0.992335711901    -0.375912983393     1.331442338317
    H            1.414560311296    -1.810637619508     0.415421767374
    C            1.510832105635    -0.002733678524    -0.731296908212
    H            1.254307652315    -0.429755980395    -1.705924455585
    H            1.084186936106     1.003808185724    -0.709629510972

*** Psi4 exiting successfully. Buy a developer a beer!
