                              Psi4 1.0.0 Driver

  ==> Input File <==

--------------------------------------------------------------------------
memory 30 Gb

molecule molecule_47_psi {
0 1
symmetry c1
    C            4.019579773035     0.332561573380     0.266912708825
    H            3.922695688236     0.872932292254     1.206838012163
    H            4.813710389326     0.801333791298    -0.309632298372
    H            4.329061172784    -0.684665950625     0.500078852170
    C           -2.492318941507     1.579271374656     0.110316316800
    H           -1.573227998503     1.656747746783     0.686694526622
    H           -3.178177451944     2.338132457153     0.481026923908
    H           -2.258229196743     1.816246645897    -0.926379488886
    C            2.703546507722     0.331604226661    -0.487979254627
    H            2.823394914526    -0.191488344119    -1.437990548489
    H            2.416742878270     1.355785745782    -0.731698300141
    C           -3.101180622263     0.193165044434     0.224558690127
    H           -3.307810317997    -0.022863203530     1.274308192319
    H           -4.062572159062     0.179251644148    -0.289818268039
    C            1.582110861616    -0.321367180453     0.296944355943
    H            1.464454219665     0.194838842821     1.253220229721
    H            1.859687943393    -1.351618816888     0.534096047944
    C            0.256875254816    -0.316818362083    -0.438415420615
    H            0.376911041024    -0.814145344612    -1.403970036760
    H           -0.030163113285     0.711983062134    -0.657663285654
    C           -0.851464310870    -1.013914462929     0.332719854247
    H           -0.571434757909    -2.060779161785     0.457024760297
    H           -0.908021596002    -0.593825547468     1.340449858836
    C           -2.224027097075    -0.917439144721    -0.334106117902
    H           -2.088707456458    -0.762609842691    -1.407262435368
    H           -2.755729322478    -1.862398752725    -0.223442857030
}

set globals {
  reference rhf
  g_convergence gau_verytight
  basis aug-cc-pvtz
  freeze_core true
  scf_type df
  mp_type df
}
optimize('mp2')
--------------------------------------------------------------------------

    Molecular point group: c1
  Charge       = 0
  Multiplicity = 1
  Basis Set: AUG-CC-PVTZ
  Basis Set:
  @DF-RHF Final Energy:  -313.54073857567448
    Total Energy =                       -313.5407385756747658
  Basis Set:
    Molecular point group: c1
  Basis Set: AUG-CC-PVTZ
  Basis Set:
  Basis Set:
	 Reference Energy          =    -313.5407385756744816 [Eh]
	 Singles Energy            =      -0.0000000000000000 [Eh]
	 Same-Spin Energy          =      -0.3160650854496801 [Eh]
	 Opposite-Spin Energy      =      -1.1243353287170772 [Eh]
	 Correlation Energy        =      -1.4404004141667572 [Eh]
	 Total Energy              =    -314.9811389898412131 [Eh]
	 SCS Total Energy          =    -314.9952959986181895 [Eh]
  Basis Set: AUG-CC-PVTZ
  Basis Set:
  @DF-RHF Final Energy:  -313.54090859441919
    Total Energy =                       -313.5409085944189655
  Basis Set:
  Basis Set: AUG-CC-PVTZ
  Basis Set:
  @DF-RHF Final Energy:  -313.54099794911667
    Total Energy =                       -313.5409979491165586
  @DF-RHF Final Energy:  -313.54103842857768
    Total Energy =                       -313.5410384285778491
  @DF-RHF Final Energy:  -313.54104036030890
    Total Energy =                       -313.5410403603091254
  @DF-RHF Final Energy:  -313.54104161052908
    Total Energy =                       -313.5410416105293621
  @DF-RHF Final Energy:  -313.54104169237394
    Total Energy =                       -313.5410416923737102
  @DF-RHF Final Energy:  -313.54104174547012
    Total Energy =                       -313.5410417454701246
  @DF-RHF Final Energy:  -313.54104121275395
    Total Energy =                       -313.5410412127541804
  @DF-RHF Final Energy:  -313.54104156789958
    Total Energy =                       -313.5410415678995264
  @DF-RHF Final Energy:  -313.54104199503172
    Total Energy =                       -313.5410419950317191
  @DF-RHF Final Energy:  -313.54104157272326
    Total Energy =                       -313.5410415727229747
  @DF-RHF Final Energy:  -313.54104149745621
    Total Energy =                       -313.5410414974559785
  @DF-RHF Final Energy:  -313.54104169915570
    Total Energy =                       -313.5410416991556417
  @DF-RHF Final Energy:  -313.54104158243996
    Total Energy =                       -313.5410415824399024
	 Singles Energy            =      -0.0000000000000000 [Eh]
	 Same-Spin Energy          =      -0.3156573630208145 [Eh]
	 Opposite-Spin Energy      =      -1.1247004770311335 [Eh]
	 Correlation Energy        =      -1.4403578400519481 [Eh]
	 Total Energy              =    -314.9813994224919043 [Eh]
	 SCS Total Energy          =    -314.9959012758842505 [Eh]
  Charge       = 0
  Multiplicity = 1
  Basis Set: AUG-CC-PVTZ
  Basis Set:

    Orbital Energies (a.u.)
    -----------------------

    Doubly Occupied:

       1A    -11.213272     2A    -11.212312     3A    -11.210641
       4A    -11.210030     5A    -11.209700     6A    -11.208580
       7A    -11.207168     8A    -11.206912     9A     -1.092717
      10A     -1.061273    11A     -1.008902    12A     -0.949066
      13A     -0.885101    14A     -0.818456    15A     -0.785124
      16A     -0.769851    17A     -0.654079    18A     -0.621719
      19A     -0.613877    20A     -0.591929    21A     -0.573558
      22A     -0.562393    23A     -0.538892    24A     -0.525746
      25A     -0.523408    26A     -0.494168    27A     -0.486601
      28A     -0.481625    29A     -0.463867    30A     -0.460542
      31A     -0.454545    32A     -0.441614    33A     -0.428048

  @DF-RHF Final Energy:  -313.54104131760818

   => Energetics <=

    Nuclear Repulsion Energy =            388.7369396221892544
    One-Electron Energy =               -1192.6245322687939279
    Two-Electron Energy =                 490.3465513289966111
    DFT Exchange-Correlation Energy =       0.0000000000000000
    Empirical Dispersion Energy =           0.0000000000000000
    PCM Polarization Energy =               0.0000000000000000
    EFP Energy =                            0.0000000000000000
    Total Energy =                       -313.5410413176080056
  Basis Set:
    Molecular point group: c1
  Basis Set: AUG-CC-PVTZ
  Basis Set:
  Basis Set:
	 Reference Energy          =    -313.5410413176081761 [Eh]
	 Singles Energy            =      -0.0000000000000000 [Eh]
	 Same-Spin Energy          =      -0.3156573438234875 [Eh]
	 Opposite-Spin Energy      =      -1.1247007669618312 [Eh]
	 Correlation Energy        =      -1.4403581107853187 [Eh]
	 Total Energy              =    -314.9813994283935017 [Eh]

	 ================> DF-SCS-MP2 Energies <==================
	-----------------------------------------------------------
	 SCS Same-Spin Scale       =       0.3333333333333333 [-]
	 SCS Opposite-Spin Scale   =       1.2000000000000000 [-]
	 SCS Same-Spin Energy      =      -0.1052191146078292 [Eh]
	 SCS Opposite-Spin Energy  =      -1.3496409203541975 [Eh]
	 SCS Correlation Energy    =      -1.4548600349620266 [Eh]
	 SCS Total Energy          =    -314.9959013525702289 [Eh]
	-----------------------------------------------------------

  -Total Gradient:
     Atom            X                  Y                   Z
    ------   -----------------  -----------------  -----------------
       1       -0.000000564516     0.000000097765    -0.000000330533
       2       -0.000000030420     0.000000358398     0.000000713662
       3        0.000000428113     0.000000310801    -0.000000365364
       4        0.000000247764    -0.000000718007     0.000000127590
       5       -0.000000265171    -0.000000333404     0.000000021918
       6        0.000000555593     0.000000027697     0.000000317344
       7       -0.000000237150     0.000000207149     0.000000128698
       8        0.000000129614     0.000000126019    -0.000000517165
       9        0.000000167103    -0.000000328903     0.000000675168
      10        0.000000110189    -0.000000342693    -0.000000735335
      11       -0.000000147014     0.000000769120    -0.000000144946
      12       -0.000000018757    -0.000000092221    -0.000000094857
      13       -0.000000036524    -0.000000086137     0.000000332413
      14       -0.000000206381    -0.000000003269    -0.000000145081
      15       -0.000000049967     0.000000102613    -0.000000494163
      16       -0.000000074668     0.000000336420     0.000000601320
      17        0.000000294536    -0.000000755212     0.000000163793
      18        0.000000165386    -0.000000421943     0.000000307116
      19        0.000000130149    -0.000000296922    -0.000000668168
      20       -0.000000503964     0.000000851795    -0.000000082341
      21       -0.000000070135     0.000000356521    -0.000000186505
      22        0.000000207763    -0.000000468980    -0.000000038221
      23       -0.000000051194     0.000000245681     0.000000626952
      24       -0.000000098678     0.000000183789     0.000000175524
      25       -0.000000035446     0.000000075733    -0.000000469348
      26       -0.000000046226    -0.000000201812     0.000000080532

  **** Optimization is complete! (in 16 steps) ****
    Final optimized geometry and variables:
    Molecular point group: c1

    Geometry (in Angstrom), charge = 0, multiplicity = 1:

    C            4.045937565761     0.322167097382     0.252167740280
    H            3.964677162169     0.830445186716     1.213770631521
    H            4.834954492856     0.810298284290    -0.319377127057
    H            4.357933133581    -0.704920971041     0.445490360395
    C           -2.527138453749     1.583895068096     0.077722590367
    H           -1.606662979115     1.691721815233     0.651433432957
    H           -3.225862741527     2.341913469452     0.431610705728
    H           -2.298264727074     1.799681141151    -0.967062177879
    C            2.714136647948     0.351227419440    -0.487466334903
    H            2.819731555232    -0.140091640303    -1.458337472696
    H            2.428390864624     1.386152870927    -0.693673299463
    C           -3.117030825701     0.186371315046     0.229079738867
    H           -3.313590405023    -0.008278513608     1.287062721838
    H           -4.084695952932     0.148137290480    -0.276703744797
    C            1.597621027396    -0.327475016070     0.295977005050
    H            1.492359634319     0.161436827859     1.270168091157
    H            1.879394121830    -1.365541385573     0.501131344190
    C            0.257538881035    -0.301272326476    -0.426563907182
    H            0.364508254831    -0.779638829460    -1.405440747731
    H           -0.026963923973     0.735269062665    -0.621800972838
    C           -0.847645025556    -1.013709495474     0.348409431095
    H           -0.554508216950    -2.059955457303     0.466975518898
    H           -0.906741971356    -0.599758985181     1.360875513068
    C           -2.229623423218    -0.932684886547    -0.315351200103
    H           -2.102523305170    -0.802199849251    -1.394823060287
    H           -2.757586853077    -1.879150663325    -0.181425256233

*** Psi4 exiting successfully. Buy a developer a beer!
