                              Psi4 1.0.0 Driver

  ==> Input File <==

--------------------------------------------------------------------------
memory 60 Gb

molecule molecule_61_psi {
0 1
C           -2.938442996821    -0.096466800476    -1.179518817172
H           -2.059185735200    -0.478798621731    -1.698171183610
H           -3.107195224733     0.926085020753    -1.521863347268
H           -3.791975092798    -0.698868098237    -1.489458967592
C            3.010207523019     0.993059568945    -0.594786928111
H            2.118268660387     1.601851821679    -0.733892363882
H            3.333739940136     0.653769001636    -1.579729300343
H            3.794476257921     1.631708542419    -0.187718765552
C           -2.755896829183    -0.136509502495     0.333458463346
H           -2.547824471127    -1.160332283202     0.650794523819
H           -3.692817191655     0.146241303555     0.818427944133
C            2.741030027146    -0.204494930922     0.312680574683
H            3.665464978463    -0.777165020741     0.407908578374
H            2.492601885959     0.139758069510     1.320880652339
C           -1.652197587450     0.797857634687     0.829056379358
H           -1.562650712152     0.700484505050     1.914959451186
H           -1.954680924461     1.830928691350     0.633793921531
C           -0.279941527481     0.558966055572     0.198149874556
H            0.420799035674     1.281337232150     0.622846794997
H           -0.320126024666     0.765220603127    -0.875447310949
C            0.249402160102    -0.852364947974     0.422428214236
H            0.303939361203    -1.040931933859     1.500286853841
H           -0.462132866479    -1.577219602172     0.018751508356
C            1.620694673396    -1.122905756337    -0.197273230179
H            1.881283791751    -2.164065003289     0.004810867997
H            1.549269693878    -1.031556705875    -1.285942858078
}

set globals {
  reference rhf
  g_convergence gau_verytight
  basis aug-cc-pvtz
  freeze_core true
  scf_type df
  mp_type df
}
optimize('mp2')
--------------------------------------------------------------------------

    Molecular point group: c1
  Charge       = 0
  Multiplicity = 1
  Basis Set: AUG-CC-PVTZ
  Basis Set:
  @DF-RHF Final Energy:  -313.53662288474595
    Total Energy =                       -313.5366228847457251
  Basis Set:
    Molecular point group: c1
  Basis Set: AUG-CC-PVTZ
  Basis Set:
  Basis Set:
	 Reference Energy          =    -313.5366228847459524 [Eh]
	 Singles Energy            =      -0.0000000000000000 [Eh]
	 Same-Spin Energy          =      -0.3169660569463402 [Eh]
	 Opposite-Spin Energy      =      -1.1264922169372387 [Eh]
	 Correlation Energy        =      -1.4434582738835788 [Eh]
	 Total Energy              =    -314.9800811586295595 [Eh]
	 SCS Total Energy          =    -314.9940688973860574 [Eh]
  Basis Set: AUG-CC-PVTZ
  Basis Set:
  @DF-RHF Final Energy:  -313.53662251556318
    Total Energy =                       -313.5366225155627262
  Basis Set:
  Basis Set: AUG-CC-PVTZ
  Basis Set:
  @DF-RHF Final Energy:  -313.53662261757120
    Total Energy =                       -313.5366226175709699
  @DF-RHF Final Energy:  -313.53662245099810
    Total Energy =                       -313.5366224509982089
  @DF-RHF Final Energy:  -313.53662261472414
    Total Energy =                       -313.5366226147244220
  @DF-RHF Final Energy:  -313.53662268806056
    Total Energy =                       -313.5366226880609020
  @DF-RHF Final Energy:  -313.53662279691486
    Total Energy =                       -313.5366227969151396
  @DF-RHF Final Energy:  -313.53662285271497
    Total Energy =                       -313.5366228527151407
  @DF-RHF Final Energy:  -313.53662287325523
    Total Energy =                       -313.5366228732550553
  @DF-RHF Final Energy:  -313.53662284809292
    Total Energy =                       -313.5366228480926907
  @DF-RHF Final Energy:  -313.53662288794743
    Total Energy =                       -313.5366228879472601
  @DF-RHF Final Energy:  -313.53662282558662
    Total Energy =                       -313.5366228255866190
  @DF-RHF Final Energy:  -313.53662281594751
    Total Energy =                       -313.5366228159472826
  @DF-RHF Final Energy:  -313.53662285507846
    Total Energy =                       -313.5366228550783489
  @DF-RHF Final Energy:  -313.53662284654808
    Total Energy =                       -313.5366228465481981
  @DF-RHF Final Energy:  -313.53662088857300
    Total Energy =                       -313.5366208885728270
  @DF-RHF Final Energy:  -313.53662271550348
    Total Energy =                       -313.5366227155035403
  @DF-RHF Final Energy:  -313.53662268371721
    Total Energy =                       -313.5366226837172690
  @DF-RHF Final Energy:  -313.53662276926883
    Total Energy =                       -313.5366227692687744
  @DF-RHF Final Energy:  -313.53662283070548
    Total Energy =                       -313.5366228307054257
  @DF-RHF Final Energy:  -313.53662274384311
    Total Energy =                       -313.5366227438429974
	 Singles Energy            =      -0.0000000000000001 [Eh]
	 Same-Spin Energy          =      -0.3169659708001792 [Eh]
	 Opposite-Spin Energy      =      -1.1264924372950831 [Eh]
	 Correlation Energy        =      -1.4434584080952624 [Eh]
	 Total Energy              =    -314.9800811519383501 [Eh]
	 SCS Total Energy          =    -314.9940689921972421 [Eh]
  Charge       = 0
  Multiplicity = 1
  Basis Set: AUG-CC-PVTZ
  Basis Set:

    Orbital Energies (a.u.)
    -----------------------

    Doubly Occupied:

       1A    -11.212639     2A    -11.212031     3A    -11.210860
       4A    -11.210801     5A    -11.210178     6A    -11.209016
       7A    -11.207001     8A    -11.205881     9A     -1.094705
      10A     -1.058899    11A     -1.003652    12A     -0.950581
      13A     -0.886355    14A     -0.835409    15A     -0.783664
      16A     -0.752529    17A     -0.649212    18A     -0.625710
      19A     -0.608447    20A     -0.600254    21A     -0.580204
      22A     -0.555001    23A     -0.541157    24A     -0.534536
      25A     -0.522292    26A     -0.495222    27A     -0.491674
      28A     -0.470085    29A     -0.468876    30A     -0.460860
      31A     -0.449423    32A     -0.433444    33A     -0.432682

  @DF-RHF Final Energy:  -313.53662280130999

   => Energetics <=

    Nuclear Repulsion Energy =            398.8901158433511114
    One-Electron Energy =               -1212.9269213806580865
    Two-Electron Energy =                 500.5001827359969298
    DFT Exchange-Correlation Energy =       0.0000000000000000
    Empirical Dispersion Energy =           0.0000000000000000
    PCM Polarization Energy =               0.0000000000000000
    EFP Energy =                            0.0000000000000000
    Total Energy =                       -313.5366228013099885
  Basis Set:
    Molecular point group: c1
  Basis Set: AUG-CC-PVTZ
  Basis Set:
  Basis Set:
	 Reference Energy          =    -313.5366228013099885 [Eh]
	 Singles Energy            =      -0.0000000000000001 [Eh]
	 Same-Spin Energy          =      -0.3169660061787430 [Eh]
	 Opposite-Spin Energy      =      -1.1264923480580511 [Eh]
	 Correlation Energy        =      -1.4434583542367942 [Eh]
	 Total Energy              =    -314.9800811555467703 [Eh]

	 ================> DF-SCS-MP2 Energies <==================
	-----------------------------------------------------------
	 SCS Same-Spin Scale       =       0.3333333333333333 [-]
	 SCS Opposite-Spin Scale   =       1.2000000000000000 [-]
	 SCS Same-Spin Energy      =      -0.1056553353929143 [Eh]
	 SCS Opposite-Spin Energy  =      -1.3517908176696614 [Eh]
	 SCS Correlation Energy    =      -1.4574461530625757 [Eh]
	 SCS Total Energy          =    -314.9940689543725512 [Eh]
	-----------------------------------------------------------

  -Total Gradient:
     Atom            X                  Y                   Z
    ------   -----------------  -----------------  -----------------
       1       -0.000000005431    -0.000000007674     0.000000057670
       2        0.000000073283    -0.000000034375    -0.000000081614
       3       -0.000000005438     0.000000051085    -0.000000035863
       4       -0.000000057786    -0.000000042654    -0.000000021038
       5       -0.000000022916    -0.000000137126     0.000000138996
       6       -0.000000172366     0.000000177823    -0.000000068242
       7        0.000000082985    -0.000000081880    -0.000000230766
       8        0.000000182223     0.000000099229     0.000000101486
       9       -0.000000004951     0.000000030107    -0.000000065605
      10        0.000000024273    -0.000000037545     0.000000022807
      11       -0.000000035988    -0.000000004211     0.000000033265
      12       -0.000000205606     0.000000159065    -0.000000448324
      13        0.000000307421    -0.000000164208    -0.000000058321
      14       -0.000000113996     0.000000099928     0.000000398152
      15        0.000000122325    -0.000000023446     0.000000123722
      16       -0.000000023170     0.000000022405    -0.000000033042
      17        0.000000025624    -0.000000006461     0.000000029183
      18       -0.000000037388    -0.000000052042     0.000000167354
      19       -0.000000015834     0.000000027626    -0.000000003386
      20       -0.000000028784     0.000000070437    -0.000000006933
      21        0.000000320605    -0.000000095052    -0.000000377578
      22       -0.000000018404     0.000000007907     0.000000117294
      23       -0.000000206153    -0.000000086820     0.000000014211
      24       -0.000000217521     0.000000351561     0.000000562896
      25        0.000000036793    -0.000000359807     0.000000140276
      26       -0.000000003800     0.000000036129    -0.000000476602

  **** Optimization is complete! (in 22 steps) ****
    Final optimized geometry and variables:
    Molecular point group: c1

    Geometry (in Angstrom), charge = 0, multiplicity = 1:

    C           -2.938411059412    -0.096448465208    -1.179552532264
    H           -2.059145288543    -0.478791686217    -1.698184182732
    H           -3.107138114535     0.926109170197    -1.521895310884
    H           -3.791945105954    -0.698835155202    -1.489518195892
    C            3.010174070858     0.993047069416    -0.594848984684
    H            2.118225237531     1.601829702927    -0.733938503593
    H            3.333671743644     0.653729748463    -1.579794318693
    H            3.794454557634     1.631713024496    -0.187828501751
    C           -2.755904312884    -0.136504234618     0.333429242370
    H           -2.547850732074    -1.160332788068     0.650764171045
    H           -3.692835271054     0.146253880041     0.818375608452
    C            2.741039090103    -0.204483000556     0.312663027301
    H            3.665483794822    -0.777140775012     0.407875087650
    H            2.492642253869     0.139797416482     1.320862287798
    C           -1.652209760155     0.797850193470     0.829063617948
    H           -1.562685981074     0.700461437247     1.914968800412
    H           -1.954685811095     1.830927037015     0.633809221967
    C           -0.279940752992     0.558961157595     0.198181667762
    H            0.420788367959     1.281346404986     0.622876937574
    H           -0.320111299020     0.765199169116    -0.875421258024
    C            0.249412968649    -0.852361761208     0.422492011742
    H            0.303968903078    -1.040898497547     1.500356588668
    H           -0.462127427015    -1.577231314154     0.018847557722
    C            1.620695506190    -1.122919793320    -0.197226412508
    H            1.881294259352    -2.164069970835     0.004895683255
    H            1.549247611675    -1.031617431142    -1.285899294918

*** Psi4 exiting successfully. Buy a developer a beer!
