                              Psi4 1.0.0 Driver

  ==> Input File <==

--------------------------------------------------------------------------
memory 60 Gb

molecule molecule_62_psi {
0 1
C           -1.874942931668     1.756741477203    -0.096399182316
H           -2.314745144227     2.533322265938    -0.722763341342
H           -0.804332498132     1.737188747852    -0.293132800557
H           -2.013495863108     2.051457686269     0.944997571230
C            3.389639353895     0.052159251374    -0.421979503772
H            3.053232987452    -0.334304186868    -1.383153325620
H            3.746652606498    -0.791562097271     0.171181829233
H            4.236931352591     0.711150568025    -0.610044671015
C           -2.533817305712     0.403714971348    -0.355457783330
H           -2.424348393503     0.132224606251    -1.409662712831
H           -3.606230737390     0.510928275789    -0.180408392617
C            2.272085214962     0.787966524582     0.309707269429
H            2.677868456002     1.252705188930     1.211073908312
H            1.898854503639     1.603165549528    -0.317328727029
C           -1.994052264355    -0.737332625444     0.517526560687
H           -2.803307843107    -1.439555642342     0.730138111260
H           -1.684251384103    -0.335862843986     1.486190094020
C           -0.854082522215    -1.536483419910    -0.118324946218
H           -1.244081920971    -2.025600355127    -1.015793852636
H           -0.559385634839    -2.338218302669     0.565839084989
C            0.390052416695    -0.735393377850    -0.498130582280
H            1.078410814373    -1.401047281926    -1.023715424881
H            0.123656396945     0.048551040457    -1.213664958632
C            1.102914809579    -0.114465370602     0.698348256286
H            0.391113868585     0.466899871502     1.288209809683
H            1.464374769749    -0.915800955478     1.351844760601
}

set globals {
  reference rhf
  g_convergence gau_verytight
  basis aug-cc-pvtz
  freeze_core true
  scf_type df
  mp_type df
}
optimize('mp2')
--------------------------------------------------------------------------

    Molecular point group: c1
  Charge       = 0
  Multiplicity = 1
  Basis Set: AUG-CC-PVTZ
  Basis Set:
  @DF-RHF Final Energy:  -313.53619148713454
    Total Energy =                       -313.5361914871349427
  Basis Set:
    Molecular point group: c1
  Basis Set: AUG-CC-PVTZ
  Basis Set:
  Basis Set:
	 Reference Energy          =    -313.5361914871345448 [Eh]
	 Singles Energy            =      -0.0000000000000000 [Eh]
	 Same-Spin Energy          =      -0.3173532178177550 [Eh]
	 Opposite-Spin Energy      =      -1.1269606043824771 [Eh]
	 Correlation Energy        =      -1.4443138222002321 [Eh]
	 Total Energy              =    -314.9805053093347738 [Eh]
	 SCS Total Energy          =    -314.9943286183327587 [Eh]
  Basis Set: AUG-CC-PVTZ
  Basis Set:
  @DF-RHF Final Energy:  -313.53619156240694
    Total Energy =                       -313.5361915624071116
  Basis Set:
  Basis Set: AUG-CC-PVTZ
  Basis Set:
  @DF-RHF Final Energy:  -313.53619159456770
    Total Energy =                       -313.5361915945679243
  @DF-RHF Final Energy:  -313.53619152822131
    Total Energy =                       -313.5361915282215364
  @DF-RHF Final Energy:  -313.53619165476272
    Total Energy =                       -313.5361916547629448
  @DF-RHF Final Energy:  -313.53619160944726
    Total Energy =                       -313.5361916094474282
  @DF-RHF Final Energy:  -313.53619159391860
    Total Energy =                       -313.5361915939186588
  @DF-RHF Final Energy:  -313.53619150997065
    Total Energy =                       -313.5361915099705925
  @DF-RHF Final Energy:  -313.53619138305442
    Total Energy =                       -313.5361913830546428
  @DF-RHF Final Energy:  -313.53619152543916
    Total Energy =                       -313.5361915254391079
  @DF-RHF Final Energy:  -313.53619159847722
    Total Energy =                       -313.5361915984770462
  @DF-RHF Final Energy:  -313.53619157102059
    Total Energy =                       -313.5361915710205380
  @DF-RHF Final Energy:  -313.53619155272224
    Total Energy =                       -313.5361915527224141
  @DF-RHF Final Energy:  -313.53619152485038
    Total Energy =                       -313.5361915248505511
  @DF-RHF Final Energy:  -313.53619153286508
    Total Energy =                       -313.5361915328648479
  @DF-RHF Final Energy:  -313.53619157768560
    Total Energy =                       -313.5361915776857700
  @DF-RHF Final Energy:  -313.53619152722365
    Total Energy =                       -313.5361915272235365
  @DF-RHF Final Energy:  -313.53619152869516
    Total Energy =                       -313.5361915286950989
  @DF-RHF Final Energy:  -313.53619149286794
    Total Energy =                       -313.5361914928679425
  @DF-RHF Final Energy:  -313.53619149887476
    Total Energy =                       -313.5361914988749277
  @DF-RHF Final Energy:  -313.53619142368444
    Total Energy =                       -313.5361914236844996
  @DF-RHF Final Energy:  -313.53619148902601
    Total Energy =                       -313.5361914890261232
  @DF-RHF Final Energy:  -313.53619147693007
    Total Energy =                       -313.5361914769301848
  @DF-RHF Final Energy:  -313.53619147705234
    Total Energy =                       -313.5361914770520571
  @DF-RHF Final Energy:  -313.53619148112932
    Total Energy =                       -313.5361914811296629
  @DF-RHF Final Energy:  -313.53619152164237
    Total Energy =                       -313.5361915216424222
  @DF-RHF Final Energy:  -313.53619153506980
    Total Energy =                       -313.5361915350697473
  @DF-RHF Final Energy:  -313.53619152111520
    Total Energy =                       -313.5361915211152564
  @DF-RHF Final Energy:  -313.53619148750289
    Total Energy =                       -313.5361914875026628
  @DF-RHF Final Energy:  -313.53619145824240
    Total Energy =                       -313.5361914582423424
  @DF-RHF Final Energy:  -313.53619144803957
    Total Energy =                       -313.5361914480391761
  @DF-RHF Final Energy:  -313.53619148353300
    Total Energy =                       -313.5361914835327752
	 Singles Energy            =      -0.0000000000000005 [Eh]
	 Same-Spin Energy          =      -0.3173531898871642 [Eh]
	 Opposite-Spin Energy      =      -1.1269606375860817 [Eh]
	 Correlation Energy        =      -1.4443138274732463 [Eh]
	 Total Energy              =    -314.9805053110062545 [Eh]
	 SCS Total Energy          =    -314.9943286452653410 [Eh]
  Charge       = 0
  Multiplicity = 1
  Basis Set: AUG-CC-PVTZ
  Basis Set:

    Orbital Energies (a.u.)
    -----------------------

    Doubly Occupied:

       1A    -11.213169     2A    -11.213155     3A    -11.211111
       4A    -11.209897     5A    -11.209472     6A    -11.208804
       7A    -11.206675     8A    -11.206543     9A     -1.094588
      10A     -1.057761    11A     -1.006448    12A     -0.948356
      13A     -0.889959    14A     -0.829310    15A     -0.789416
      16A     -0.751550    17A     -0.648696    18A     -0.624010
      19A     -0.613213    20A     -0.589878    21A     -0.583952
      22A     -0.560598    23A     -0.544983    24A     -0.534200
      25A     -0.512897    26A     -0.500696    27A     -0.492859
      28A     -0.474211    29A     -0.465853    30A     -0.460952
      31A     -0.440387    32A     -0.438338    33A     -0.433977

  @DF-RHF Final Energy:  -313.53619150242378

   => Energetics <=

    Nuclear Repulsion Energy =            403.1964647158071102
    One-Electron Energy =               -1221.5334907273645513
    Two-Electron Energy =                 504.8008345091339493
    DFT Exchange-Correlation Energy =       0.0000000000000000
    Empirical Dispersion Energy =           0.0000000000000000
    PCM Polarization Energy =               0.0000000000000000
    EFP Energy =                            0.0000000000000000
    Total Energy =                       -313.5361915024234918
  Basis Set:
    Molecular point group: c1
  Basis Set: AUG-CC-PVTZ
  Basis Set:
  Basis Set:
	 Reference Energy          =    -313.5361915024237760 [Eh]
	 Singles Energy            =      -0.0000000000000002 [Eh]
	 Same-Spin Energy          =      -0.3173531859892422 [Eh]
	 Opposite-Spin Energy      =      -1.1269606224421354 [Eh]
	 Correlation Energy        =      -1.4443138084313778 [Eh]
	 Total Energy              =    -314.9805053108551647 [Eh]

	 ================> DF-SCS-MP2 Energies <==================
	-----------------------------------------------------------
	 SCS Same-Spin Scale       =       0.3333333333333333 [-]
	 SCS Opposite-Spin Scale   =       1.2000000000000000 [-]
	 SCS Same-Spin Energy      =      -0.1057843953297474 [Eh]
	 SCS Opposite-Spin Energy  =      -1.3523527469305623 [Eh]
	 SCS Correlation Energy    =      -1.4581371422603100 [Eh]
	 SCS Total Energy          =    -314.9943286446840602 [Eh]
	-----------------------------------------------------------

  -Total Gradient:
     Atom            X                  Y                   Z
    ------   -----------------  -----------------  -----------------
       1       -0.000000316462    -0.000000532751    -0.000000077362
       2       -0.000000279807     0.000000245138    -0.000000295938
       3        0.000000677794     0.000000045412    -0.000000122318
       4        0.000000010432     0.000000185482     0.000000547473
       5       -0.000000511498     0.000000244437     0.000000326075
       6       -0.000000164054    -0.000000281083    -0.000000539477
       7        0.000000269590    -0.000000506920     0.000000264259
       8        0.000000365872     0.000000384342    -0.000000062938
       9        0.000000273468     0.000000240888     0.000000349764
      10        0.000000048619    -0.000000231269    -0.000000558507
      11       -0.000000365216     0.000000054086     0.000000151122
      12        0.000000047821    -0.000000927356    -0.000000104186
      13        0.000000332601     0.000000285473     0.000000623505
      14       -0.000000295617     0.000000629678    -0.000000490639
      15        0.000000165381    -0.000000091581    -0.000000691730
      16       -0.000000245126    -0.000000292455     0.000000017007
      17        0.000000065765     0.000000262489     0.000000612179
      18       -0.000000048050     0.000000514090     0.000000087358
      19       -0.000000183525    -0.000000304312    -0.000000514082
      20        0.000000066221    -0.000000455300     0.000000500479
      21       -0.000000231494    -0.000000315651     0.000000441749
      22        0.000000341909    -0.000000190067    -0.000000149725
      23       -0.000000344257     0.000000690414    -0.000000626168
      24        0.000000550498     0.000000382432    -0.000000561028
      25       -0.000000660211     0.000000449498     0.000000506431
      26        0.000000429345    -0.000000485114     0.000000366695

  **** Optimization is complete! (in 33 steps) ****
    Final optimized geometry and variables:
    Molecular point group: c1

    Geometry (in Angstrom), charge = 0, multiplicity = 1:

    C           -1.874943638312     1.756739528258    -0.096390094457
    H           -2.314751072645     2.533322573430    -0.722748044795
    H           -0.804334639566     1.737188433164    -0.293131849468
    H           -2.013488760813     2.051452217293     0.945008808673
    C            3.389650677000     0.052153074822    -0.421965265684
    H            3.053260012484    -0.334320919414    -1.383140572946
    H            3.746653461105    -0.791562412074     0.171211205952
    H            4.236947049372     0.711141325885    -0.610023772906
    C           -2.533822213408     0.403715152887    -0.355447723266
    H           -2.424363100581     0.132228747787    -1.409654907194
    H           -3.606233977100     0.510930227124    -0.180388221799
    C            2.272085913884     0.787970233490     0.309695504137
    H            2.677858921289     1.252722978724     1.211060268132
    H            1.898863005648     1.603160454258    -0.317357431291
    C           -1.994051562517    -0.737336852432     0.517527594257
    H           -2.803305832213    -1.439561643517     0.730138916928
    H           -1.684246518307    -0.335871936604     1.486192108677
    C           -0.854084197489    -1.536484337916    -0.118332165823
    H           -1.244086371052    -2.025595680488    -1.015803193556
    H           -0.559385422500    -2.338223539243     0.565826208498
    C            0.390050305567    -0.735393143476    -0.498137629958
    H            1.078411659785    -1.401048931971    -1.023716765264
    H            0.123653822094     0.048546036063    -1.213678442337
    C            1.102910649417    -0.114455676092     0.698337945880
    H            0.391107341728     0.466914792631     1.288193080968
    H            1.464366724225    -0.915787123138     1.351842467490

*** Psi4 exiting successfully. Buy a developer a beer!
