                              Psi4 1.0.0 Driver

  ==> Input File <==

--------------------------------------------------------------------------
memory 60 Gb

molecule molecule_38_psi {
0 1
C            3.202960259680    -1.075285301432     0.389272274864
H            2.308030917119    -1.656196564484     0.606214179506
H            3.650912148308    -0.792593956082     1.342855201598
H            3.908025907775    -1.723871758783    -0.131173879000
C           -4.021368885665    -0.084964760757    -0.012036468743
H           -4.724366720933     0.500032872670     0.580445215682
H           -4.275582866184    -1.138789472950     0.108219192306
H           -4.170217640528     0.174176127445    -1.061081849769
C            2.883114918904     0.170783905196    -0.432401621821
H            2.505679512074    -0.118594632503    -1.417557267019
H            3.814541651395     0.710919118329    -0.612217636225
C           -2.579268165783     0.174562512609     0.407202281603
H           -2.361113524300     1.239550650519     0.310023898415
H           -2.450604961420    -0.075278238829     1.464292672299
C            1.870368815718     1.108904281156     0.240417187895
H            2.147150133341     2.146694659943     0.042524586683
H            1.926700965041     0.979209439026     1.325940557360
C            0.424715683547     0.913212011517    -0.217384934811
H            0.360027323201     1.138179746855    -1.287529906720
H           -0.202663515233     1.648200858059     0.291944820663
C           -0.133494723777    -0.485910409118     0.018932260827
H            0.474707938180    -1.211678634708    -0.525701990374
H           -0.046448000725    -0.738225192742     1.081357321717
C           -1.589159588684    -0.639823126038    -0.418325053453
H           -1.681255924820    -0.357194007642    -1.472407420882
H           -1.872551442579    -1.694698855496    -0.356525118539
}

set globals {
  reference rhf
  g_convergence gau_verytight
  basis aug-cc-pvtz
  freeze_core true
  scf_type df
  mp_type df
}
optimize('mp2')
--------------------------------------------------------------------------

    Molecular point group: c1
  Charge       = 0
  Multiplicity = 1
  Basis Set: AUG-CC-PVTZ
  Basis Set:
  @DF-RHF Final Energy:  -313.53874652966135
    Total Energy =                       -313.5387465296614096
  Basis Set:
    Molecular point group: c1
  Basis Set: AUG-CC-PVTZ
  Basis Set:
  Basis Set:
	 Reference Energy          =    -313.5387465296613527 [Eh]
	 Singles Energy            =      -0.0000000000000000 [Eh]
	 Same-Spin Energy          =      -0.3160930539967263 [Eh]
	 Opposite-Spin Energy      =      -1.1253707246617690 [Eh]
	 Correlation Energy        =      -1.4414637786584954 [Eh]
	 Total Energy              =    -314.9802103083198404 [Eh]
	 SCS Total Energy          =    -314.9945557505877218 [Eh]
  Basis Set: AUG-CC-PVTZ
  Basis Set:
  @DF-RHF Final Energy:  -313.53874651073181
    Total Energy =                       -313.5387465107318121
  Basis Set:
  Basis Set: AUG-CC-PVTZ
  Basis Set:
  @DF-RHF Final Energy:  -313.53874652172379
    Total Energy =                       -313.5387465217236809
  @DF-RHF Final Energy:  -313.53874644664108
    Total Energy =                       -313.5387464466410847
  @DF-RHF Final Energy:  -313.53874589989260
    Total Energy =                       -313.5387458998926604
  @DF-RHF Final Energy:  -313.53874645993534
    Total Energy =                       -313.5387464599351119
  @DF-RHF Final Energy:  -313.53874640404490
    Total Energy =                       -313.5387464040452983
  @DF-RHF Final Energy:  -313.53874643522960
    Total Energy =                       -313.5387464352297684
  @DF-RHF Final Energy:  -313.53874639972770
    Total Energy =                       -313.5387463997275290
  @DF-RHF Final Energy:  -313.53874635928867
    Total Energy =                       -313.5387463592885524
  @DF-RHF Final Energy:  -313.53874575240445
    Total Energy =                       -313.5387457524045658
  @DF-RHF Final Energy:  -313.53874647302513
    Total Energy =                       -313.5387464730250713
  @DF-RHF Final Energy:  -313.53874614616484
    Total Energy =                       -313.5387461461648400
	 Singles Energy            =      -0.0000000000000001 [Eh]
	 Same-Spin Energy          =      -0.3160931399085338 [Eh]
	 Opposite-Spin Energy      =      -1.1253710217840445 [Eh]
	 Correlation Energy        =      -1.4414641616925785 [Eh]
	 Total Energy              =    -314.9802103078574191 [Eh]
	 SCS Total Energy          =    -314.9945557522752324 [Eh]
  Charge       = 0
  Multiplicity = 1
  Basis Set: AUG-CC-PVTZ
  Basis Set:

    Orbital Energies (a.u.)
    -----------------------

    Doubly Occupied:

       1A    -11.212578     2A    -11.211991     3A    -11.210767
       4A    -11.210613     5A    -11.210162     6A    -11.209685
       7A    -11.207001     8A    -11.205810     9A     -1.093731
      10A     -1.059356    11A     -1.007050    12A     -0.951591
      13A     -0.879279    14A     -0.829877    15A     -0.787217
      16A     -0.762986    17A     -0.637694    18A     -0.632735
      19A     -0.611994    20A     -0.592108    21A     -0.575207
      22A     -0.560297    23A     -0.550537    24A     -0.531341
      25A     -0.517757    26A     -0.496941    27A     -0.484209
      28A     -0.474326    29A     -0.468260    30A     -0.460667
      31A     -0.452633    32A     -0.434326    33A     -0.432544

  @DF-RHF Final Energy:  -313.53874650369175

   => Energetics <=

    Nuclear Repulsion Energy =            391.2255867268906968
    One-Electron Energy =               -1197.6021266697882766
    Two-Electron Energy =                 492.8377934392058819
    DFT Exchange-Correlation Energy =       0.0000000000000000
    Empirical Dispersion Energy =           0.0000000000000000
    PCM Polarization Energy =               0.0000000000000000
    EFP Energy =                            0.0000000000000000
    Total Energy =                       -313.5387465036916979
  Basis Set:
    Molecular point group: c1
  Basis Set: AUG-CC-PVTZ
  Basis Set:
  Basis Set:
	 Reference Energy          =    -313.5387465036917547 [Eh]
	 Singles Energy            =      -0.0000000000000001 [Eh]
	 Same-Spin Energy          =      -0.3160930601029484 [Eh]
	 Opposite-Spin Energy      =      -1.1253707451670252 [Eh]
	 Correlation Energy        =      -1.4414638052699738 [Eh]
	 Total Energy              =    -314.9802103089617162 [Eh]

	 ================> DF-SCS-MP2 Energies <==================
	-----------------------------------------------------------
	 SCS Same-Spin Scale       =       0.3333333333333333 [-]
	 SCS Opposite-Spin Scale   =       1.2000000000000000 [-]
	 SCS Same-Spin Energy      =      -0.1053643533676494 [Eh]
	 SCS Opposite-Spin Energy  =      -1.3504448942004301 [Eh]
	 SCS Correlation Energy    =      -1.4558092475680797 [Eh]
	 SCS Total Energy          =    -314.9945557512598384 [Eh]
	-----------------------------------------------------------

  -Total Gradient:
     Atom            X                  Y                   Z
    ------   -----------------  -----------------  -----------------
       1       -0.000000178676     0.000000056474    -0.000000072399
       2       -0.000000055627    -0.000000049530     0.000000038533
       3        0.000000030063    -0.000000012211     0.000000121614
       4        0.000000069575    -0.000000104639    -0.000000061811
       5        0.000000190760     0.000000098096     0.000000055596
       6       -0.000000239413     0.000000224492     0.000000194451
       7       -0.000000149445    -0.000000327715    -0.000000004528
       8       -0.000000087881     0.000000090493    -0.000000409959
       9       -0.000000151785    -0.000000047376    -0.000000100224
      10        0.000000045417     0.000000034323     0.000000169830
      11        0.000000058069     0.000000006546    -0.000000012297
      12       -0.000000095312    -0.000000451587    -0.000000534918
      13        0.000000144122     0.000000547049     0.000000092037
      14       -0.000000054527     0.000000025970     0.000000675019
      15       -0.000000027979     0.000000092637     0.000000251266
      16        0.000000052539    -0.000000219577     0.000000064414
      17        0.000000057606     0.000000043106    -0.000000297556
      18       -0.000000340465    -0.000000434193     0.000000239638
      19        0.000000126147     0.000000179267    -0.000000528447
      20       -0.000000219880     0.000000228049     0.000000127093
      21       -0.000000557233     0.000000818762    -0.000000675311
      22        0.000000636957    -0.000000509471    -0.000000298594
      23        0.000000359738    -0.000000429071     0.000001083223
      24        0.000000772271     0.000000572641     0.000000570454
      25       -0.000000045405     0.000000178381    -0.000000706845
      26       -0.000000339636    -0.000000610916     0.000000019722

  **** Optimization is complete! (in 14 steps) ****
    Final optimized geometry and variables:
    Molecular point group: c1

    Geometry (in Angstrom), charge = 0, multiplicity = 1:

    C            3.202958944967    -1.075283362467     0.389277748345
    H            2.308029506401    -1.656197584659     0.606213307784
    H            3.650903653421    -0.792590908105     1.342864383134
    H            3.908030665489    -1.723867734560    -0.131163903462
    C           -4.021368018478    -0.084960260214    -0.012032244254
    H           -4.724362862188     0.500032722233     0.580457744282
    H           -4.275586450910    -1.138785453175     0.108209722057
    H           -4.170216197914     0.174195218003    -1.061074240038
    C            2.883116108545     0.170785113369    -0.432398573596
    H            2.505686999388    -0.118594708292    -1.417556313173
    H            3.814544513118     0.710920154125    -0.612209506917
    C           -2.579266124849     0.174556493323     0.407209828957
    H           -2.361107833406     1.239545051400     0.310044494912
    H           -2.450604485502    -0.075297108312     1.464297356480
    C            1.870365689458     1.108906009064     0.240413004939
    H            2.147146311682     2.146695661526     0.042517852408
    H            1.926692685648     0.979215080536     1.325936579690
    C            0.424715470814     0.913209480144    -0.217395674606
    H            0.360032861605     1.138169406019    -1.287542538301
    H           -0.202667622576     1.648200586711     0.291925491011
    C           -0.133494371501    -0.485912117621     0.018927939938
    H            0.474707815737    -1.211681828376    -0.525705255056
    H           -0.046445421594    -0.738222911408     1.081354400551
    C           -1.589159537202    -0.639822915477    -0.418326685093
    H           -1.681258718609    -0.357186539621    -1.472406984810
    H           -1.872551708053    -1.694698931991    -0.356533086296

*** Psi4 exiting successfully. Buy a developer a beer!
