                              Psi4 1.0.0 Driver

  ==> Input File <==

--------------------------------------------------------------------------
memory 60 Gb

molecule molecule_35_psi {
0 1
C            2.665946871439    -1.132590318055     0.337494620976
H            2.177213911061    -1.887378440734    -0.280889569955
H            2.183326316078    -1.137191253651     1.314374742895
H            3.701901353836    -1.439042458003     0.481089005273
C           -1.409789677940    -1.882149309164    -0.181830300237
H           -1.728439049782    -2.816594346301     0.281043535154
H           -0.380126443530    -1.697491694477     0.118208153346
H           -1.418440301615    -2.027272616520    -1.263339127900
C            2.583496516899     0.239316643673    -0.324058927141
H            3.144248167128     0.217507059255    -1.261179573379
H            3.070059075619     0.984200984880     0.311778999587
C           -2.339096754665    -0.734431464246     0.206144993503
H           -3.357316539412    -1.016497187636    -0.069624675608
H           -2.342794233620    -0.610549258953     1.293242899192
C            1.150698730709     0.684649221014    -0.610150954603
H            0.666122197250    -0.065113411992    -1.241624205930
H            1.169509509365     1.612266930524    -1.190582506119
C            0.324846098652     0.923223573156     0.649643565357
H            0.869429103459     1.622883904570     1.291704634672
H            0.226280922708     0.000263477622     1.224742392151
C           -1.060545600747     1.500359621735     0.365376307582
H           -1.551763959370     1.727745839425     1.316132086206
H           -0.939297105816     2.455072016831    -0.155635432896
C           -1.998505552898     0.609508313410    -0.452007363978
H           -2.921964059961     1.170985112260    -0.611086576982
H           -1.580284942629     0.430939003118    -1.446572774985
}

set globals {
  reference rhf
  g_convergence gau_verytight
  basis aug-cc-pvtz
  freeze_core true
  scf_type df
  mp_type df
}
optimize('mp2')
--------------------------------------------------------------------------

    Molecular point group: c1
  Charge       = 0
  Multiplicity = 1
  Basis Set: AUG-CC-PVTZ
  Basis Set:
  @DF-RHF Final Energy:  -313.53624728168290
    Total Energy =                       -313.5362472816826767
  Basis Set:
    Molecular point group: c1
  Basis Set: AUG-CC-PVTZ
  Basis Set:
  Basis Set:
	 Reference Energy          =    -313.5362472816829040 [Eh]
	 Singles Energy            =      -0.0000000000000001 [Eh]
	 Same-Spin Energy          =      -0.3174586262303556 [Eh]
	 Opposite-Spin Energy      =      -1.1271461127737137 [Eh]
	 Correlation Energy        =      -1.4446047390040693 [Eh]
	 Total Energy              =    -314.9808520206869957 [Eh]
	 SCS Total Energy          =    -314.9946421590881300 [Eh]
  Basis Set: AUG-CC-PVTZ
  Basis Set:
  @DF-RHF Final Energy:  -313.53624706194216
    Total Energy =                       -313.5362470619421629
  Basis Set:
  Basis Set: AUG-CC-PVTZ
  Basis Set:
  @DF-RHF Final Energy:  -313.53624667063343
    Total Energy =                       -313.5362466706333748
  @DF-RHF Final Energy:  -313.53624715303073
    Total Energy =                       -313.5362471530307289
  @DF-RHF Final Energy:  -313.53624707095503
    Total Energy =                       -313.5362470709550280
  @DF-RHF Final Energy:  -313.53624706092967
    Total Energy =                       -313.5362470609297816
  @DF-RHF Final Energy:  -313.53624699718523
    Total Energy =                       -313.5362469971853443
  @DF-RHF Final Energy:  -313.53624730279830
    Total Energy =                       -313.5362473027984720
  @DF-RHF Final Energy:  -313.53624720038067
    Total Energy =                       -313.5362472003806715
  @DF-RHF Final Energy:  -313.53624720994407
    Total Energy =                       -313.5362472099440083
  @DF-RHF Final Energy:  -313.53624723191314
    Total Energy =                       -313.5362472319133076
  @DF-RHF Final Energy:  -313.53624715160345
    Total Energy =                       -313.5362471516029927
  @DF-RHF Final Energy:  -313.53624710189615
    Total Energy =                       -313.5362471018963788
  @DF-RHF Final Energy:  -313.53624725968638
    Total Energy =                       -313.5362472596866610
  @DF-RHF Final Energy:  -313.53624727745625
    Total Energy =                       -313.5362472774561411
  @DF-RHF Final Energy:  -313.53624722236520
    Total Energy =                       -313.5362472223650911
  @DF-RHF Final Energy:  -313.53624724161602
    Total Energy =                       -313.5362472416160244
  @DF-RHF Final Energy:  -313.53624727917730
    Total Energy =                       -313.5362472791778714
  @DF-RHF Final Energy:  -313.53624728581082
    Total Energy =                       -313.5362472858108731
  @DF-RHF Final Energy:  -313.53624723245014
    Total Energy =                       -313.5362472324502505
  @DF-RHF Final Energy:  -313.53624725420701
    Total Energy =                       -313.5362472542067280
  @DF-RHF Final Energy:  -313.53624729891351
    Total Energy =                       -313.5362472989133380
	 Singles Energy            =      -0.0000000000000002 [Eh]
	 Same-Spin Energy          =      -0.3174586205641730 [Eh]
	 Opposite-Spin Energy      =      -1.1271461045579099 [Eh]
	 Correlation Energy        =      -1.4446047251220830 [Eh]
	 Total Energy              =    -314.9808520240355847 [Eh]
	 SCS Total Energy          =    -314.9946421645710757 [Eh]
  Charge       = 0
  Multiplicity = 1
  Basis Set: AUG-CC-PVTZ
  Basis Set:

    Orbital Energies (a.u.)
    -----------------------

    Doubly Occupied:

       1A    -11.213001     2A    -11.212945     3A    -11.210941
       4A    -11.209854     5A    -11.209658     6A    -11.208968
       7A    -11.206956     8A    -11.206140     9A     -1.094399
      10A     -1.057576    11A     -1.007089    12A     -0.947708
      13A     -0.890474    14A     -0.827402    15A     -0.791955
      16A     -0.750088    17A     -0.650993    18A     -0.623580
      19A     -0.608654    20A     -0.593228    21A     -0.581455
      22A     -0.566945    23A     -0.538558    24A     -0.530339
      25A     -0.515613    26A     -0.508265    27A     -0.491007
      28A     -0.474747    29A     -0.465471    30A     -0.456587
      31A     -0.440065    32A     -0.438656    33A     -0.435358

  @DF-RHF Final Energy:  -313.53624727234802

   => Energetics <=

    Nuclear Repulsion Energy =            406.1519193849464386
    One-Electron Energy =               -1227.4469834769331555
    Two-Electron Energy =                 507.7588168196387528
    DFT Exchange-Correlation Energy =       0.0000000000000000
    Empirical Dispersion Energy =           0.0000000000000000
    PCM Polarization Energy =               0.0000000000000000
    EFP Energy =                            0.0000000000000000
    Total Energy =                       -313.5362472723479073
  Basis Set:
    Molecular point group: c1
  Basis Set: AUG-CC-PVTZ
  Basis Set:
  Basis Set:
	 Reference Energy          =    -313.5362472723480209 [Eh]
	 Singles Energy            =      -0.0000000000000001 [Eh]
	 Same-Spin Energy          =      -0.3174586293335424 [Eh]
	 Opposite-Spin Energy      =      -1.1271461217057825 [Eh]
	 Correlation Energy        =      -1.4446047510393252 [Eh]
	 Total Energy              =    -314.9808520233873423 [Eh]

	 ================> DF-SCS-MP2 Energies <==================
	-----------------------------------------------------------
	 SCS Same-Spin Scale       =       0.3333333333333333 [-]
	 SCS Opposite-Spin Scale   =       1.2000000000000000 [-]
	 SCS Same-Spin Energy      =      -0.1058195431111808 [Eh]
	 SCS Opposite-Spin Energy  =      -1.3525753460469390 [Eh]
	 SCS Correlation Energy    =      -1.4583948891581200 [Eh]
	 SCS Total Energy          =    -314.9946421615061354 [Eh]
	-----------------------------------------------------------

  -Total Gradient:
     Atom            X                  Y                   Z
    ------   -----------------  -----------------  -----------------
       1        0.000000044352    -0.000000456820     0.000000207284
       2        0.000000216528     0.000000426830     0.000000263934
       3        0.000000210592     0.000000062856    -0.000000420519
       4       -0.000000407744     0.000000063713    -0.000000018810
       5        0.000000140338    -0.000000156855    -0.000000057817
       6        0.000000109871     0.000000282140    -0.000000126154
       7       -0.000000329010     0.000000023010    -0.000000040827
       8       -0.000000020455     0.000000053074     0.000000253240
       9        0.000000223726     0.000000394874    -0.000000111795
      10       -0.000000132591    -0.000000036172     0.000000257836
      11       -0.000000199661    -0.000000294178    -0.000000210219
      12       -0.000000085010    -0.000000053110    -0.000000020888
      13        0.000000178721     0.000000077143     0.000000047493
      14       -0.000000003561     0.000000058807    -0.000000065341
      15       -0.000000703513     0.000000085340    -0.000000358469
      16        0.000000454224     0.000000389409     0.000000572102
      17       -0.000000028635    -0.000000162498     0.000000125304
      18        0.000000262471    -0.000000610792    -0.000000000714
      19       -0.000000049609     0.000000049442    -0.000000078471
      20        0.000000050114    -0.000000003631    -0.000000133752
      21        0.000000199006    -0.000000044638    -0.000000208843
      22       -0.000000122815     0.000000044133     0.000000137826
      23        0.000000019501     0.000000048972    -0.000000055821
      24        0.000000024748    -0.000000255229    -0.000000275860
      25        0.000000073473     0.000000055742     0.000000044012
      26       -0.000000125066    -0.000000041567     0.000000275267

  **** Optimization is complete! (in 23 steps) ****
    Final optimized geometry and variables:
    Molecular point group: c1

    Geometry (in Angstrom), charge = 0, multiplicity = 1:

    C            2.665939945881    -1.132608621856     0.337449955645
    H            2.177213445999    -1.887367686530    -0.280975248569
    H            2.183307424987    -1.137254514113     1.314324340769
    H            3.701892499120    -1.439068531278     0.481042427382
    C           -1.409793668706    -1.882147445130    -0.181872734564
    H           -1.728435027367    -2.816599967238     0.280990139951
    H           -0.380127630624    -1.697492245164     0.118155502581
    H           -1.418457676978    -2.027252666480    -1.263383466797
    C            2.583500626665     0.239329251772    -0.324041681271
    H            3.144260861613     0.217560114789    -1.261159015054
    H            3.070060148720     0.984183224917     0.311835058714
    C           -2.339096293539    -0.734436378409     0.206132380002
    H           -3.357319157540    -1.016492666667    -0.069634424630
    H           -2.342784521363    -0.610573434776     1.293232400697
    C            1.150707317705     0.684680526448    -0.610127192904
    H            0.666132249967    -0.065054262976    -1.241634928273
    H            1.169527546954     1.612322754377    -1.190519958497
    C            0.324842465299     0.923206996652     0.649669140200
    H            0.869418077771     1.622847801297     1.291757950898
    H            0.226272933435     0.000227205335     1.224736296538
    C           -1.060546686336     1.500349593042     0.365406443476
    H           -1.551769858040     1.727717964180     1.316164447459
    H           -0.939295623883     2.455072025465    -0.155586828747
    C           -1.998502664120     0.609512997099    -0.451998117132
    H           -2.921959507182     1.170993752343    -0.611073499661
    H           -1.580277163322     0.430957195046    -1.446563631454

*** Psi4 exiting successfully. Buy a developer a beer!
