                              Psi4 1.0.0 Driver

  ==> Input File <==

--------------------------------------------------------------------------
memory 60 Gb

molecule molecule_32_psi {
0 1
C           -2.558560902554    -1.434803656312    -0.671479108770
H           -3.511905811695    -1.899283174133    -0.922687895896
H           -1.930039580928    -2.194201086888    -0.202972628017
H           -2.082230579754    -1.137216172340    -1.604889376682
C            3.059171360194    -1.425960681599     0.065370279565
H            3.015157866606    -2.412618304286     0.525883136389
H            3.948517081739    -0.918541706774     0.441228447092
H            3.185016055492    -1.562776883947    -1.009527877917
C           -2.752340613569    -0.247704373337     0.266795449256
H           -3.305467318365    -0.577972244707     1.148842224788
H           -3.370755830172     0.511192537678    -0.220913199009
C            1.806102212335    -0.610126032427     0.360598593438
H            0.928250372000    -1.153038261974     0.003022104989
H            1.684520961042    -0.495019282990     1.441425149189
C           -1.436577389704     0.386130965938     0.711967784396
H           -0.802819493862    -0.382276243652     1.161911531452
H           -1.634727366756     1.120046394019     1.498301467708
C           -0.685304756603     1.092142896470    -0.414974952957
H           -1.328377292600     1.890996823840    -0.794260589502
H           -0.525119011330     0.406687313419    -1.251989071026
C            0.668694350710     1.673281955689     0.016935652176
H            0.833434695143     2.630107122781    -0.483061461960
H            0.642856515470     1.888578778283     1.089905075680
C            1.860020708007     0.766863536824    -0.290575007206
H            1.934502353600     0.638910639054    -1.375677875313
H            2.781112174446     1.267146339739     0.023955604751
}

set globals {
  reference rhf
  g_convergence gau_verytight
  basis aug-cc-pvtz
  freeze_core true
  scf_type df
  mp_type df
}
optimize('mp2')
--------------------------------------------------------------------------

    Molecular point group: c1
  Charge       = 0
  Multiplicity = 1
  Basis Set: AUG-CC-PVTZ
  Basis Set:
  @DF-RHF Final Energy:  -313.53875456880070
    Total Energy =                       -313.5387545688005275
  Basis Set:
    Molecular point group: c1
  Basis Set: AUG-CC-PVTZ
  Basis Set:
  Basis Set:
	 Reference Energy          =    -313.5387545688006981 [Eh]
	 Singles Energy            =      -0.0000000000000004 [Eh]
	 Same-Spin Energy          =      -0.3164262295227155 [Eh]
	 Opposite-Spin Energy      =      -1.1257708711399728 [Eh]
	 Correlation Energy        =      -1.4421971006626888 [Eh]
	 Total Energy              =    -314.9809516694633658 [Eh]
	 SCS Total Energy          =    -314.9951550240095912 [Eh]
  Basis Set: AUG-CC-PVTZ
  Basis Set:
  @DF-RHF Final Energy:  -313.53875450187502
    Total Energy =                       -313.5387545018752462
  Basis Set:
  Basis Set: AUG-CC-PVTZ
  Basis Set:
  @DF-RHF Final Energy:  -313.53875430356101
    Total Energy =                       -313.5387543035611770
  @DF-RHF Final Energy:  -313.53875453191284
    Total Energy =                       -313.5387545319130140
  @DF-RHF Final Energy:  -313.53875416426843
    Total Energy =                       -313.5387541642681981
  @DF-RHF Final Energy:  -313.53875444520429
    Total Energy =                       -313.5387544452039492
  @DF-RHF Final Energy:  -313.53875451200037
    Total Energy =                       -313.5387545120005370
  @DF-RHF Final Energy:  -313.53875450169977
    Total Energy =                       -313.5387545016996569
  @DF-RHF Final Energy:  -313.53875422765282
    Total Energy =                       -313.5387542276530439
  @DF-RHF Final Energy:  -313.53875446971136
    Total Energy =                       -313.5387544697111935
	 Singles Energy            =      -0.0000000000000001 [Eh]
	 Same-Spin Energy          =      -0.3164262527075585 [Eh]
	 Opposite-Spin Energy      =      -1.1257709453791747 [Eh]
	 Correlation Energy        =      -1.4421971980867332 [Eh]
	 Total Energy              =    -314.9809516677980810 [Eh]
	 SCS Total Energy          =    -314.9951550217355702 [Eh]
  Charge       = 0
  Multiplicity = 1
  Basis Set: AUG-CC-PVTZ
  Basis Set:

    Orbital Energies (a.u.)
    -----------------------

    Doubly Occupied:

       1A    -11.212536     2A    -11.212235     3A    -11.210879
       4A    -11.210280     5A    -11.209646     6A    -11.208973
       7A    -11.207114     8A    -11.206965     9A     -1.093677
      10A     -1.059698    11A     -1.008868    12A     -0.947240
      13A     -0.883640    14A     -0.831020    15A     -0.778379
      16A     -0.768553    17A     -0.646811    18A     -0.620799
      19A     -0.608314    20A     -0.602516    21A     -0.580336
      22A     -0.557619    23A     -0.545296    24A     -0.528882
      25A     -0.511166    26A     -0.504009    27A     -0.485515
      28A     -0.482536    29A     -0.463886    30A     -0.460207
      31A     -0.448601    32A     -0.437659    33A     -0.431642

  @DF-RHF Final Energy:  -313.53875452012403

   => Energetics <=

    Nuclear Repulsion Energy =            397.7741050426086531
    One-Electron Energy =               -1210.6947243490119490
    Two-Electron Energy =                 499.3818647862794364
    DFT Exchange-Correlation Energy =       0.0000000000000000
    Empirical Dispersion Energy =           0.0000000000000000
    PCM Polarization Energy =               0.0000000000000000
    EFP Energy =                            0.0000000000000000
    Total Energy =                       -313.5387545201238595
  Basis Set:
    Molecular point group: c1
  Basis Set: AUG-CC-PVTZ
  Basis Set:
  Basis Set:
	 Reference Energy          =    -313.5387545201240300 [Eh]
	 Singles Energy            =      -0.0000000000000001 [Eh]
	 Same-Spin Energy          =      -0.3164262383240183 [Eh]
	 Opposite-Spin Energy      =      -1.1257709094818384 [Eh]
	 Correlation Energy        =      -1.4421971478058568 [Eh]
	 Total Energy              =    -314.9809516679299009 [Eh]

	 ================> DF-SCS-MP2 Energies <==================
	-----------------------------------------------------------
	 SCS Same-Spin Scale       =       0.3333333333333333 [-]
	 SCS Opposite-Spin Scale   =       1.2000000000000000 [-]
	 SCS Same-Spin Energy      =      -0.1054754127746728 [Eh]
	 SCS Opposite-Spin Energy  =      -1.3509250913782060 [Eh]
	 SCS Correlation Energy    =      -1.4564005041528789 [Eh]
	 SCS Total Energy          =    -314.9951550242769258 [Eh]
	-----------------------------------------------------------

  -Total Gradient:
     Atom            X                  Y                   Z
    ------   -----------------  -----------------  -----------------
       1        0.000000023706    -0.000000308633    -0.000000249585
       2        0.000000203211     0.000000072986     0.000000034642
       3       -0.000000161562     0.000000199136    -0.000000093977
       4       -0.000000144519    -0.000000051808     0.000000273275
       5        0.000000412525    -0.000000356899    -0.000000111297
       6       -0.000000005905     0.000000498911    -0.000000213042
       7       -0.000000466770    -0.000000209295    -0.000000153364
       8       -0.000000104490     0.000000099476     0.000000555463
       9       -0.000000300135     0.000000033390     0.000000088947
      10        0.000000057725     0.000000014660    -0.000000066015
      11        0.000000143846    -0.000000113233     0.000000058308
      12       -0.000000792439    -0.000000286751     0.000000523122
      13        0.000000710025     0.000000524711     0.000000079141
      14        0.000000086067     0.000000068431    -0.000000829516
      15       -0.000000315833    -0.000000262493     0.000000776751
      16       -0.000000053926     0.000000294657    -0.000000291563
      17        0.000000004496    -0.000000228475    -0.000000190001
      18        0.000000450911     0.000000202730    -0.000001130050
      19        0.000000513338    -0.000000513781     0.000000103459
      20       -0.000000328247     0.000000470888     0.000000661962
      21        0.000000283299     0.000000977357     0.000000583392
      22       -0.000000224673    -0.000000597238     0.000000541876
      23        0.000000093179    -0.000000247698    -0.000001085870
      24        0.000000550427    -0.000000007575    -0.000000556136
      25       -0.000000130117     0.000000061137     0.000000923532
      26       -0.000000504138    -0.000000334588    -0.000000233456

  **** Optimization is complete! (in 11 steps) ****
    Final optimized geometry and variables:
    Molecular point group: c1

    Geometry (in Angstrom), charge = 0, multiplicity = 1:

    C           -2.558546438236    -1.434808097382    -0.671476002056
    H           -3.511887674864    -1.899294051025    -0.922687384151
    H           -1.930022206283    -2.194200521143    -0.202964945730
    H           -2.082214179950    -1.137220019063    -1.604885238363
    C            3.059162862592    -1.425965494843     0.065367922940
    H            3.015144760186    -2.412624225740     0.525877504926
    H            3.948508733778    -0.918550405180     0.441230492802
    H            3.185010401920    -1.562778585550    -1.009530147181
    C           -2.752336964257    -0.247707206883     0.266794808629
    H           -3.305465071546    -0.577976544916     1.148840483154
    H           -3.370755086446     0.511184837279    -0.220918361269
    C            1.806095222156    -0.610128039346     0.360594736238
    H            0.928243057446    -1.153037174363     0.003015025014
    H            1.684512273542    -0.495023084178     1.441421056823
    C           -1.436578660658     0.386137026068     0.711970246196
    H           -0.802817743298    -0.382265861390     1.161917912091
    H           -1.634735090653     1.120053951766     1.498301370665
    C           -0.685305950167     1.092149782905    -0.414972929487
    H           -1.328377271928     1.891005609576    -0.794256466768
    H           -0.525123072953     0.406694906333    -1.251988063059
    C            0.668695537987     1.673284797979     0.016936190778
    H            0.833438178245     2.630109565778    -0.483060883425
    H            0.642859890264     1.888581785481     1.089905767739
    C            1.860018841124     0.766862647456    -0.290576235382
    H            1.934500019417     0.638911224339    -1.375679233372
    H            2.781112044212     1.267141597597     0.023955305788

*** Psi4 exiting successfully. Buy a developer a beer!
