                              Psi4 1.0.0 Driver

  ==> Input File <==

--------------------------------------------------------------------------
memory 60 Gb

molecule molecule_64_psi {
0 1
C           -3.564825426890    -0.271892845050     0.577122390791
H           -4.004651218439     0.358323744486    -0.197859650679
H           -3.261661849944     0.374107403250     1.400085954013
H           -4.343757833814    -0.936787883032     0.949484293142
C            3.443242833029    -1.085478431749     0.024296781114
H            3.613755274437    -1.047942179441     1.101070879176
H            4.221753101802    -0.490970821761    -0.455422854035
H            3.563059295592    -2.119440846417    -0.298233049427
C           -2.385121899052    -1.062363748907     0.020737418009
H           -2.748650410812    -1.774901311985    -0.723097271454
H           -1.930890363120    -1.654046951024     0.820822800777
C            2.060736350972    -0.544400410413    -0.320566515121
H            1.898245403189    -0.604443450758    -1.400425187404
H            1.299170153276    -1.173490502973     0.145968589605
C           -1.312891068873    -0.181856574140    -0.615781518301
H           -1.753494714167     0.383559497835    -1.443672158052
H           -0.540793187792    -0.816284649824    -1.054930853071
C           -0.669974702580     0.803251397425     0.358906112468
H           -0.369784734196     0.270246621354     1.268469185331
H           -1.420692654486     1.532473365745     0.668060436573
C            0.546365572855     1.536251689509    -0.225187981734
H            0.448096995194     1.583944767942    -1.314430774256
H            0.557353062864     2.570090995205     0.126406517950
C            1.887679131205     0.899256691027     0.136387045624
H            2.696171266253     1.500490835558    -0.290732067274
H            2.014728422377     0.940501448431     1.223362839356
}

set globals {
  reference rhf
  g_convergence gau_verytight
  basis aug-cc-pvtz
  freeze_core true
  scf_type df
  mp_type df
}
optimize('mp2')
--------------------------------------------------------------------------

    Molecular point group: c1
  Charge       = 0
  Multiplicity = 1
  Basis Set: AUG-CC-PVTZ
  Basis Set:
  @DF-RHF Final Energy:  -313.53882310590882
    Total Energy =                       -313.5388231059087047
  Basis Set:
    Molecular point group: c1
  Basis Set: AUG-CC-PVTZ
  Basis Set:
  Basis Set:
	 Reference Energy          =    -313.5388231059088184 [Eh]
	 Singles Energy            =      -0.0000000000000003 [Eh]
	 Same-Spin Energy          =      -0.3162995274927667 [Eh]
	 Opposite-Spin Energy      =      -1.1256153729551226 [Eh]
	 Correlation Energy        =      -1.4419149004478895 [Eh]
	 Total Energy              =    -314.9807380063567166 [Eh]
	 SCS Total Energy          =    -314.9949947292859065 [Eh]
  Basis Set: AUG-CC-PVTZ
  Basis Set:
  @DF-RHF Final Energy:  -313.53882274609617
    Total Energy =                       -313.5388227460958888
  Basis Set:
  Basis Set: AUG-CC-PVTZ
  Basis Set:
  @DF-RHF Final Energy:  -313.53882291596659
    Total Energy =                       -313.5388229159666480
  @DF-RHF Final Energy:  -313.53882302474472
    Total Energy =                       -313.5388230247449997
  @DF-RHF Final Energy:  -313.53882297518959
    Total Energy =                       -313.5388229751893618
  @DF-RHF Final Energy:  -313.53882303873092
    Total Energy =                       -313.5388230387307544
  @DF-RHF Final Energy:  -313.53882299276813
    Total Energy =                       -313.5388229927684165
  @DF-RHF Final Energy:  -313.53882300239053
    Total Energy =                       -313.5388230023906999
  @DF-RHF Final Energy:  -313.53882301675753
    Total Energy =                       -313.5388230167574761
  @DF-RHF Final Energy:  -313.53882309114039
    Total Energy =                       -313.5388230911402729
  @DF-RHF Final Energy:  -313.53882308703760
    Total Energy =                       -313.5388230870377129
  @DF-RHF Final Energy:  -313.53882306107283
    Total Energy =                       -313.5388230610729465
  @DF-RHF Final Energy:  -313.53882298735510
    Total Energy =                       -313.5388229873549903
  @DF-RHF Final Energy:  -313.53882300965847
    Total Energy =                       -313.5388230096583584
  @DF-RHF Final Energy:  -313.53882304359138
    Total Energy =                       -313.5388230435917194
  @DF-RHF Final Energy:  -313.53882301326831
    Total Energy =                       -313.5388230132683702
  @DF-RHF Final Energy:  -313.53882302148378
    Total Energy =                       -313.5388230214837222
  @DF-RHF Final Energy:  -313.53882301365536
    Total Energy =                       -313.5388230136551897
  @DF-RHF Final Energy:  -313.53882304635562
    Total Energy =                       -313.5388230463558443
  @DF-RHF Final Energy:  -313.53882306054027
    Total Energy =                       -313.5388230605402669
  @DF-RHF Final Energy:  -313.53882298642748
    Total Energy =                       -313.5388229864274763
	 Singles Energy            =      -0.0000000000000004 [Eh]
	 Same-Spin Energy          =      -0.3162994483017397 [Eh]
	 Opposite-Spin Energy      =      -1.1256155681067483 [Eh]
	 Correlation Energy        =      -1.4419150164084884 [Eh]
	 Total Energy              =    -314.9807380028359489 [Eh]
	 SCS Total Energy          =    -314.9949948175894860 [Eh]
  Charge       = 0
  Multiplicity = 1
  Basis Set: AUG-CC-PVTZ
  Basis Set:

    Orbital Energies (a.u.)
    -----------------------

    Doubly Occupied:

       1A    -11.212535     2A    -11.212515     3A    -11.210999
       4A    -11.210369     5A    -11.209630     6A    -11.208901
       7A    -11.207245     8A    -11.206357     9A     -1.093740
      10A     -1.059866    11A     -1.008527    12A     -0.946648
      13A     -0.884999    14A     -0.830300    15A     -0.779002
      16A     -0.767641    17A     -0.644215    18A     -0.628759
      19A     -0.607483    20A     -0.594080    21A     -0.579715
      22A     -0.561617    23A     -0.548073    24A     -0.525412
      25A     -0.516331    26A     -0.498113    27A     -0.488239
      28A     -0.479705    29A     -0.464205    30A     -0.460356
      31A     -0.451573    32A     -0.435601    33A     -0.431672

  @DF-RHF Final Energy:  -313.53882302469759

   => Energetics <=

    Nuclear Repulsion Energy =            394.4072538278016395
    One-Electron Energy =               -1203.9633054057719619
    Two-Electron Energy =                 496.0172285532727869
    DFT Exchange-Correlation Energy =       0.0000000000000000
    Empirical Dispersion Energy =           0.0000000000000000
    PCM Polarization Energy =               0.0000000000000000
    EFP Energy =                            0.0000000000000000
    Total Energy =                       -313.5388230246974786
  Basis Set:
    Molecular point group: c1
  Basis Set: AUG-CC-PVTZ
  Basis Set:
  Basis Set:
	 Reference Energy          =    -313.5388230246975922 [Eh]
	 Singles Energy            =      -0.0000000000000002 [Eh]
	 Same-Spin Energy          =      -0.3162994913690022 [Eh]
	 Opposite-Spin Energy      =      -1.1256154886820799 [Eh]
	 Correlation Energy        =      -1.4419149800510824 [Eh]
	 Total Energy              =    -314.9807380047486731 [Eh]

	 ================> DF-SCS-MP2 Energies <==================
	-----------------------------------------------------------
	 SCS Same-Spin Scale       =       0.3333333333333333 [-]
	 SCS Opposite-Spin Scale   =       1.2000000000000000 [-]
	 SCS Same-Spin Energy      =      -0.1054331637896674 [Eh]
	 SCS Opposite-Spin Energy  =      -1.3507385864184960 [Eh]
	 SCS Correlation Energy    =      -1.4561717502081637 [Eh]
	 SCS Total Energy          =    -314.9949947749057628 [Eh]
	-----------------------------------------------------------

  -Total Gradient:
     Atom            X                  Y                   Z
    ------   -----------------  -----------------  -----------------
       1       -0.000000117720     0.000000123405     0.000000087342
       2        0.000000048619    -0.000000055445     0.000000035188
       3       -0.000000017959    -0.000000069719    -0.000000074367
       4        0.000000068370     0.000000070704    -0.000000038908
       5        0.000000022209    -0.000000050111     0.000000014632
       6       -0.000000050823    -0.000000013517    -0.000000153738
       7       -0.000000125363    -0.000000083102     0.000000044510
       8        0.000000018707     0.000000086000     0.000000039397
       9        0.000000010012    -0.000000060592    -0.000000049621
      10       -0.000000007338    -0.000000000702     0.000000002092
      11       -0.000000036793     0.000000020979    -0.000000015743
      12       -0.000000091987    -0.000000253544    -0.000000155068
      13        0.000000060515     0.000000036741     0.000000250875
      14        0.000000220352     0.000000188718    -0.000000072616
      15       -0.000000233612     0.000000232483     0.000000127564
      16       -0.000000081600     0.000000077304    -0.000000071909
      17        0.000000253924    -0.000000218531    -0.000000095463
      18       -0.000000331914    -0.000000070432    -0.000000043398
      19        0.000000058043    -0.000000049502     0.000000081476
      20       -0.000000104895     0.000000067763     0.000000038759
      21        0.000000234148     0.000000097185     0.000000037816
      22       -0.000000002330     0.000000017161    -0.000000088724
      23        0.000000003316     0.000000038223     0.000000022086
      24        0.000000347726    -0.000000046928     0.000000122270
      25       -0.000000117364    -0.000000067907     0.000000062583
      26       -0.000000026239    -0.000000016633    -0.000000107035

  **** Optimization is complete! (in 22 steps) ****
    Final optimized geometry and variables:
    Molecular point group: c1

    Geometry (in Angstrom), charge = 0, multiplicity = 1:

    C           -3.564847971546    -0.271851881102     0.577101146720
    H           -4.004637696818     0.358372339770    -0.197896197721
    H           -3.261686742654     0.374145816750     1.400068318983
    H           -4.343808524052    -0.936722794677     0.949448886396
    C            3.443273502883    -1.085453988609     0.024281436437
    H            3.613783484484    -1.047924348156     1.101057250177
    H            4.221777648136    -0.490931283074    -0.455431911389
    H            3.563105947838    -2.119413259560    -0.298256632519
    C           -2.385153847700    -1.062361149694     0.020749708658
    H           -2.748688634709    -1.774899432605    -0.723082412643
    H           -1.930953048641    -1.654046289167     0.820852297781
    C            2.060760213470    -0.544392709559    -0.320581099251
    H            1.898271114911    -0.604431867560    -1.400442131338
    H            1.299200765260    -1.173497865460     0.145948696515
    C           -1.312889376332    -0.181890188316    -0.615763392605
    H           -1.753467731194     0.383525813923    -1.443669177167
    H           -0.540799333396    -0.816344043089    -1.054893413462
    C           -0.669970458784     0.803216558909     0.358922335928
    H           -0.369765782091     0.270209340914     1.268481167197
    H           -1.420693926814     1.532429920662     0.668087247698
    C            0.546356490051     1.536236641791    -0.225176859539
    H            0.448078684996     1.583937396369    -1.314420015551
    H            0.557333138922     2.570073991458     0.126426819291
    C            1.887682520426     0.899259243728     0.136382924732
    H            2.696162329774     1.500509155807    -0.290739624512
    H            2.014740958900     0.940499888667     1.223359073725

*** Psi4 exiting successfully. Buy a developer a beer!
