                              Psi4 1.0.0 Driver

  ==> Input File <==

--------------------------------------------------------------------------
memory 60 Gb

molecule molecule_63_psi {
0 1
C           -3.375364720043     0.047335827778     0.343821451894
H           -3.713124456410     0.758187499821    -0.412351828024
H           -3.075118004973     0.614221476299     1.224169991341
H           -4.226709288157    -0.572147559167     0.624706566336
C            1.720600743413    -1.754145831818     0.377226235664
H            2.177605438620    -1.814431803570     1.366102994634
H            1.880257657708    -2.710450849300    -0.121777048527
H            0.648777781386    -1.628042965929     0.517068988901
C           -2.228710634768    -0.803320746544    -0.192652686450
H           -2.597705340459    -1.435465903934    -1.003494277514
H           -1.877893579949    -1.479737120400     0.592490383091
C            2.341620349971    -0.608975373771    -0.418883297193
H            3.405996498055    -0.823532367202    -0.538371602979
H            1.926082576698    -0.578710496022    -1.429713297129
C           -1.049890321481     0.022616071302    -0.700934216737
H           -1.387439433011     0.671735341250    -1.515752020167
H           -0.303806445365    -0.645564365009    -1.134435032668
C           -0.403368126628     0.893739606817     0.375156911517
H           -0.231326038606     0.301526271585     1.279972880729
H           -1.111020088816     1.675781443342     0.657155411292
C            0.911008933753     1.546905394591    -0.071502483105
H            0.861792665203     1.740684103340    -1.148152574311
H            1.004221885191     2.524617548168     0.407330973336
C            2.193224497677     0.769274500378     0.236499435816
H            3.032780579833     1.395234504669    -0.076152802146
H            2.287345851607     0.655510228307     1.321649309460
}

set globals {
  reference rhf
  g_convergence gau_verytight
  basis aug-cc-pvtz
  freeze_core true
  scf_type df
  mp_type df
}
optimize('mp2')
--------------------------------------------------------------------------

    Molecular point group: c1
  Charge       = 0
  Multiplicity = 1
  Basis Set: AUG-CC-PVTZ
  Basis Set:
  @DF-RHF Final Energy:  -313.53306792333700
    Total Energy =                       -313.5330679233366027
  Basis Set:
    Molecular point group: c1
  Basis Set: AUG-CC-PVTZ
  Basis Set:
  Basis Set:
	 Reference Energy          =    -313.5330679233370006 [Eh]
	 Singles Energy            =      -0.0000000000000000 [Eh]
	 Same-Spin Energy          =      -0.3174237685242841 [Eh]
	 Opposite-Spin Energy      =      -1.1273190300903251 [Eh]
	 Correlation Energy        =      -1.4447427986146093 [Eh]
	 Total Energy              =    -314.9778107219515846 [Eh]
	 SCS Total Energy          =    -314.9916586822868112 [Eh]
  Basis Set: AUG-CC-PVTZ
  Basis Set:
  @DF-RHF Final Energy:  -313.53306781070989
    Total Energy =                       -313.5330678107094400
  Basis Set:
  Basis Set: AUG-CC-PVTZ
  Basis Set:
  @DF-RHF Final Energy:  -313.53306778079957
    Total Energy =                       -313.5330677807999677
  @DF-RHF Final Energy:  -313.53306798516655
    Total Energy =                       -313.5330679851665536
  @DF-RHF Final Energy:  -313.53306789457179
    Total Energy =                       -313.5330678945724685
  @DF-RHF Final Energy:  -313.53306813083174
    Total Energy =                       -313.5330681308321346
  @DF-RHF Final Energy:  -313.53306797551414
    Total Energy =                       -313.5330679755147685
  @DF-RHF Final Energy:  -313.53306795645341
    Total Energy =                       -313.5330679564526690
  @DF-RHF Final Energy:  -313.53306797699418
    Total Energy =                       -313.5330679769946869
  @DF-RHF Final Energy:  -313.53306793161852
    Total Energy =                       -313.5330679316180635
  @DF-RHF Final Energy:  -313.53306796849068
    Total Energy =                       -313.5330679684908546
  @DF-RHF Final Energy:  -313.53306820547795
    Total Energy =                       -313.5330682054782301
  @DF-RHF Final Energy:  -313.53306800872815
    Total Energy =                       -313.5330680087274118
  @DF-RHF Final Energy:  -313.53306798108150
    Total Energy =                       -313.5330679810803076
  @DF-RHF Final Energy:  -313.53306797746689
    Total Energy =                       -313.5330679774666010
  @DF-RHF Final Energy:  -313.53306800082532
    Total Energy =                       -313.5330680008249828
  @DF-RHF Final Energy:  -313.53306793809122
    Total Energy =                       -313.5330679380909942
  @DF-RHF Final Energy:  -313.53306805519424
    Total Energy =                       -313.5330680551937803
  @DF-RHF Final Energy:  -313.53306802257612
    Total Energy =                       -313.5330680225756055
	 Singles Energy            =      -0.0000000000000001 [Eh]
	 Same-Spin Energy          =      -0.3174238103489100 [Eh]
	 Opposite-Spin Energy      =      -1.1273188915728760 [Eh]
	 Correlation Energy        =      -1.4447427019217860 [Eh]
	 Total Energy              =    -314.9778107244978855 [Eh]
	 SCS Total Energy          =    -314.9916586292465581 [Eh]
  Charge       = 0
  Multiplicity = 1
  Basis Set: AUG-CC-PVTZ
  Basis Set:

    Orbital Energies (a.u.)
    -----------------------

    Doubly Occupied:

       1A    -11.213201     2A    -11.213099     3A    -11.211399
       4A    -11.210784     5A    -11.209763     6A    -11.209161
       7A    -11.206662     8A    -11.206072     9A     -1.093164
      10A     -1.057733    11A     -1.006587    12A     -0.950644
      13A     -0.887840    14A     -0.830688    15A     -0.777263
      16A     -0.765975    17A     -0.651121    18A     -0.619681
      19A     -0.598218    20A     -0.594913    21A     -0.589637
      22A     -0.562636    23A     -0.552309    24A     -0.520794
      25A     -0.518664    26A     -0.504268    27A     -0.487267
      28A     -0.474010    29A     -0.465970    30A     -0.460143
      31A     -0.451729    32A     -0.432611    33A     -0.430080

  @DF-RHF Final Energy:  -313.53306796107063

   => Energetics <=

    Nuclear Repulsion Energy =            403.8603463170959458
    One-Electron Energy =               -1222.8586545835648849
    Two-Electron Energy =                 505.4652403053995613
    DFT Exchange-Correlation Energy =       0.0000000000000000
    Empirical Dispersion Energy =           0.0000000000000000
    PCM Polarization Energy =               0.0000000000000000
    EFP Energy =                            0.0000000000000000
    Total Energy =                       -313.5330679610693778
  Basis Set:
    Molecular point group: c1
  Basis Set: AUG-CC-PVTZ
  Basis Set:
  Basis Set:
	 Reference Energy          =    -313.5330679610706284 [Eh]
	 Singles Energy            =      -0.0000000000000000 [Eh]
	 Same-Spin Energy          =      -0.3174238010540096 [Eh]
	 Opposite-Spin Energy      =      -1.1273189596928743 [Eh]
	 Correlation Energy        =      -1.4447427607468839 [Eh]
	 Total Energy              =    -314.9778107218174910 [Eh]

	 ================> DF-SCS-MP2 Energies <==================
	-----------------------------------------------------------
	 SCS Same-Spin Scale       =       0.3333333333333333 [-]
	 SCS Opposite-Spin Scale   =       1.2000000000000000 [-]
	 SCS Same-Spin Energy      =      -0.1058079336846699 [Eh]
	 SCS Opposite-Spin Energy  =      -1.3527827516314492 [Eh]
	 SCS Correlation Energy    =      -1.4585906853161190 [Eh]
	 SCS Total Energy          =    -314.9916586463867247 [Eh]
	-----------------------------------------------------------

  -Total Gradient:
     Atom            X                  Y                   Z
    ------   -----------------  -----------------  -----------------
       1       -0.000000025430    -0.000000047334     0.000000004198
       2       -0.000000011277     0.000000017127     0.000000008027
       3       -0.000000007186     0.000000024345    -0.000000002580
       4       -0.000000018976    -0.000000020300     0.000000009721
       5        0.000000067495     0.000000017518    -0.000000072946
       6       -0.000000011878    -0.000000002993    -0.000000046470
       7       -0.000000015644     0.000000017579    -0.000000001519
       8        0.000000033702    -0.000000007461     0.000000000428
       9       -0.000000010243     0.000000015133    -0.000000025967
      10       -0.000000067612    -0.000000096747    -0.000000127579
      11        0.000000028741    -0.000000062084     0.000000101364
      12       -0.000000036944    -0.000000131488     0.000000209366
      13        0.000000109778    -0.000000012289    -0.000000003976
      14       -0.000000079871    -0.000000005564    -0.000000094927
      15        0.000000056934    -0.000000331644    -0.000000120453
      16       -0.000000033619     0.000000034348    -0.000000022271
      17        0.000000058266     0.000000037775     0.000000010440
      18        0.000000282983     0.000000263059     0.000000164660
      19       -0.000000034883     0.000000203162    -0.000000165269
      20        0.000000160234    -0.000000121548     0.000000035151
      21       -0.000000384145     0.000000398792     0.000000174768
      22        0.000000073824    -0.000000084215     0.000000120220
      23       -0.000000017919    -0.000000140144    -0.000000097554
      24       -0.000000263873    -0.000000005072    -0.000000001313
      25        0.000000137328     0.000000043414    -0.000000078253
      26        0.000000010216    -0.000000003371     0.000000022733

  **** Optimization is complete! (in 20 steps) ****
    Final optimized geometry and variables:
    Molecular point group: c1

    Geometry (in Angstrom), charge = 0, multiplicity = 1:

    C           -3.375356586545     0.047330374292     0.343825420089
    H           -3.713122451377     0.758180822768    -0.412344856669
    H           -3.075104876772     0.614215546137     1.224171480329
    H           -4.226696758191    -0.572155152778     0.624715678545
    C            1.720597867747    -1.754148134653     0.377230926224
    H            2.177609868718    -1.814435790218     1.366103556896
    H            1.880246983209    -2.710452909580    -0.121773912240
    H            0.648777001594    -1.628040477973     0.517081667504
    C           -2.228702749391    -0.803321138646    -0.192657170515
    H           -2.597697845339    -1.435463848887    -1.003498922146
    H           -1.877879877560    -1.479737621069     0.592481338266
    C            2.341613721037    -0.608978579323    -0.418882651251
    H            3.405989129134    -0.823535157868    -0.538376175203
    H            1.926070490507    -0.578714711199    -1.429709857928
    C           -1.049887737958     0.022622477491    -0.700938802069
    H           -1.387438792233     0.671739118578    -1.515756628186
    H           -0.303801203225    -0.645553965562    -1.134437451930
    C           -0.403371664372     0.893746484686     0.375154252338
    H           -0.231334885073     0.301533740501     1.279970319461
    H           -1.111023385269     1.675789054534     0.657148612979
    C            0.911007572101     1.546907381101    -0.071503091101
    H            0.861795058581     1.740685855908    -1.148153037669
    H            1.004224790337     2.524618948667     0.407330139126
    C            2.193219394729     0.769271132651     0.236501732624
    H            3.032778095233     1.395229024414    -0.076147906471
    H            2.287337686564     0.655505974623     1.321651723294

*** Psi4 exiting successfully. Buy a developer a beer!
