                              Psi4 1.0.0 Driver

  ==> Input File <==

--------------------------------------------------------------------------
memory 60 Gb

molecule molecule_44_psi {
0 1
C           -3.252415997790    -0.312540819089    -0.445131554024
H           -3.719723443618     0.641868973995    -0.694000593818
H           -4.045109748453    -1.022540093191    -0.210433475660
H           -2.739561054996    -0.673445009718    -1.336473552630
C            3.252407171878     0.312563540653    -0.445161849933
H            4.045102570618     1.022556183463    -0.210448425305
H            2.739537825378     0.673500410011    -1.336482707344
H            3.719713560469    -0.641835784804    -0.694074048277
C           -2.290926034137    -0.152533397558     0.727334110961
H           -1.809457613894    -1.110258860388     0.938782281286
H           -2.856241133724     0.108409222838     1.624801046002
C            2.290935270916     0.152509590222     0.727312252362
H            2.856265106590    -0.108464391820     1.624760837981
H            1.809466524260     1.110225645927     0.938803738377
C           -1.229066821663     0.920537400618     0.490092915788
H           -0.596216327354     0.999731577090     1.377741886143
H           -1.725965532257     1.889129508489     0.381060020079
C           -0.354878122350     0.676883299082    -0.740943533715
H            0.385475126816     1.478225239475    -0.809988757162
H           -0.964860128448     0.756186744507    -1.643908323999
C            0.354868720821    -0.676864487371    -0.740968525865
H           -0.385484943005    -1.478204652496    -0.810029710913
H            0.964840180624    -0.756139175915    -1.643943405360
C            1.229076140311    -0.920556687084     0.490048243479
H            0.596237870770    -0.999783568643     1.377703330996
H            1.725977254957    -1.889143387886     0.380976003789
}

set globals {
  reference rhf
  g_convergence gau_verytight
  basis aug-cc-pvtz
  freeze_core true
  scf_type df
  mp_type df
}
optimize('mp2')
--------------------------------------------------------------------------

    Molecular point group: c1
  Charge       = 0
  Multiplicity = 1
  Basis Set: AUG-CC-PVTZ
  Basis Set:
  @DF-RHF Final Energy:  -313.53769092020167
    Total Energy =                       -313.5376909202013849
  Basis Set:
    Molecular point group: c1
  Basis Set: AUG-CC-PVTZ
  Basis Set:
  Basis Set:
	 Reference Energy          =    -313.5376909202016691 [Eh]
	 Singles Energy            =      -0.0000000000000000 [Eh]
	 Same-Spin Energy          =      -0.3183404258712921 [Eh]
	 Opposite-Spin Energy      =      -1.1278224682639080 [Eh]
	 Correlation Energy        =      -1.4461628941352000 [Eh]
	 Total Energy              =    -314.9838538143368964 [Eh]
	 SCS Total Energy          =    -314.9971913574087807 [Eh]
  Basis Set: AUG-CC-PVTZ
  Basis Set:
  @DF-RHF Final Energy:  -313.53769090148421
    Total Energy =                       -313.5376909014843250
  Basis Set:
  Basis Set: AUG-CC-PVTZ
  Basis Set:
  @DF-RHF Final Energy:  -313.53769062237347
    Total Energy =                       -313.5376906223744982
  @DF-RHF Final Energy:  -313.53769090438345
    Total Energy =                       -313.5376909043832256
  @DF-RHF Final Energy:  -313.53769050595338
    Total Energy =                       -313.5376905059536057
  @DF-RHF Final Energy:  -313.53769108468100
    Total Energy =                       -313.5376910846813985
	 Singles Energy            =      -0.0000000000000005 [Eh]
	 Same-Spin Energy          =      -0.3183403799947248 [Eh]
	 Opposite-Spin Energy      =      -1.1278223518619859 [Eh]
	 Correlation Energy        =      -1.4461627318567110 [Eh]
	 Total Energy              =    -314.9838538165377031 [Eh]
	 SCS Total Energy          =    -314.9971913669136256 [Eh]
  Charge       = 0
  Multiplicity = 1
  Basis Set: AUG-CC-PVTZ
  Basis Set:

    Orbital Energies (a.u.)
    -----------------------

    Doubly Occupied:

       1A    -11.212310     2A    -11.212310     3A    -11.210339
       4A    -11.210282     5A    -11.209562     6A    -11.209009
       7A    -11.206828     8A    -11.206828     9A     -1.097789
      10A     -1.057569    11A     -1.002093    12A     -0.945809
      13A     -0.895323    14A     -0.841887    15A     -0.782921
      16A     -0.733740    17A     -0.650846    18A     -0.648606
      19A     -0.602159    20A     -0.601014    21A     -0.573470
      22A     -0.553922    23A     -0.544455    24A     -0.533141
      25A     -0.513291    26A     -0.511994    27A     -0.485999
      28A     -0.472754    29A     -0.470117    30A     -0.462252
      31A     -0.443335    32A     -0.434546    33A     -0.433903

  @DF-RHF Final Energy:  -313.53769088903420

   => Energetics <=

    Nuclear Repulsion Energy =            406.9894932646578241
    One-Electron Energy =               -1229.1135587614967335
    Two-Electron Energy =                 508.5863746078047143
    DFT Exchange-Correlation Energy =       0.0000000000000000
    Empirical Dispersion Energy =           0.0000000000000000
    PCM Polarization Energy =               0.0000000000000000
    EFP Energy =                            0.0000000000000000
    Total Energy =                       -313.5376908890342520
  Basis Set:
    Molecular point group: c1
  Basis Set: AUG-CC-PVTZ
  Basis Set:
  Basis Set:
	 Reference Energy          =    -313.5376908890341952 [Eh]
	 Singles Energy            =      -0.0000000000000004 [Eh]
	 Same-Spin Energy          =      -0.3183404315525525 [Eh]
	 Opposite-Spin Energy      =      -1.1278224965147383 [Eh]
	 Correlation Energy        =      -1.4461629280672912 [Eh]
	 Total Energy              =    -314.9838538171014761 [Eh]

	 ================> DF-SCS-MP2 Energies <==================
	-----------------------------------------------------------
	 SCS Same-Spin Scale       =       0.3333333333333333 [-]
	 SCS Opposite-Spin Scale   =       1.2000000000000000 [-]
	 SCS Same-Spin Energy      =      -0.1061134771841842 [Eh]
	 SCS Opposite-Spin Energy  =      -1.3533869958176858 [Eh]
	 SCS Correlation Energy    =      -1.4595004730018704 [Eh]
	 SCS Total Energy          =    -314.9971913620360624 [Eh]
	-----------------------------------------------------------

  -Total Gradient:
     Atom            X                  Y                   Z
    ------   -----------------  -----------------  -----------------
       1        0.000000521551     0.000000419849     0.000000445121
       2       -0.000000307138     0.000000491230    -0.000000297803
       3       -0.000000636190    -0.000000591074     0.000000268075
       4        0.000000288195    -0.000000144528    -0.000000601574
       5       -0.000000629241     0.000000089031     0.000000721807
       6        0.000000671609     0.000000647086     0.000000311977
       7       -0.000000348087     0.000000208180    -0.000000742694
       8        0.000000531750    -0.000000982986    -0.000000365443
       9        0.000000175915     0.000000610453    -0.000001151425
      10        0.000000619942    -0.000001135340     0.000000246599
      11       -0.000000629435     0.000000315585     0.000000684562
      12        0.000000202460    -0.000000760473    -0.000001232161
      13        0.000000587950    -0.000000384757     0.000000773772
      14       -0.000000625619     0.000001192334     0.000000335528
      15       -0.000000133953    -0.000000859913    -0.000000273602
      16        0.000000780725     0.000000027719     0.000001112749
      17       -0.000000480869     0.000000741021    -0.000000236466
      18       -0.000000841406    -0.000000525070     0.000000361314
      19        0.000000808070     0.000000614176    -0.000000017817
      20       -0.000000428145     0.000000078826    -0.000000521428
      21       -0.000000150881    -0.000000134102    -0.000000397745
      22       -0.000000488437    -0.000000496985     0.000000063970
      23        0.000000484190     0.000000119753    -0.000000359481
      24        0.000000480698     0.000001430449    -0.000000257977
      25       -0.000001112096    -0.000000163940     0.000001251516
      26        0.000000658442    -0.000000806521    -0.000000121374

  **** Optimization is complete! (in 7 steps) ****
    Final optimized geometry and variables:
    Molecular point group: c1

    Geometry (in Angstrom), charge = 0, multiplicity = 1:

    C           -3.252414988203    -0.312538040772    -0.445132188490
    H           -3.719717464666     0.641873332549    -0.694002625405
    H           -4.045112526372    -1.022533547251    -0.210434891265
    H           -2.739560843027    -0.673444998639    -1.336473218453
    C            3.252407032765     0.312565223215    -0.445162234794
    H            4.045101602699     1.022559167959    -0.210448700176
    H            2.739538434845     0.673500145840    -1.336484303052
    H            3.719714940463    -0.641834150255    -0.694073047492
    C           -2.290926174175    -0.152534088015     0.727334929703
    H           -1.809459420610    -1.110260571277     0.938782245942
    H           -2.856241935007     0.108408441395     1.624801769744
    C            2.290934985685     0.152510923822     0.727311764362
    H            2.856264852045    -0.108463286878     1.624760779565
    H            1.809466226399     1.110227023368     0.938803592407
    C           -1.229066520306     0.920536085648     0.490094234839
    H           -0.596215474661     0.999729295869     1.377743014892
    H           -1.725964943608     1.889128674444     0.381061666695
    C           -0.354879921544     0.676881029769    -0.740943333062
    H            0.385474555633     1.478222160910    -0.809990519000
    H           -0.964862637247     0.756184281310    -1.643907608324
    C            0.354868542008    -0.676866609949    -0.740968998074
    H           -0.385483458908    -1.478208307616    -0.810029492330
    H            0.964840764274    -0.756140039977    -1.643943520220
    C            1.229076910218    -0.920556258543     0.490048037311
    H            0.596238743009    -0.999784890615     1.377703396605
    H            1.725980174928    -1.889142074867     0.380975785364

*** Psi4 exiting successfully. Buy a developer a beer!
