                              Psi4 1.0.0 Driver

  ==> Input File <==

--------------------------------------------------------------------------
memory 60 Gb

molecule molecule_69_psi {
0 1
C            3.264715947128     0.823041225220    -0.520789199605
H            4.140741406936     0.471079038836    -1.065057412673
H            3.610933078470     1.333492207059     0.378891478265
H            2.755799272526     1.559463829969    -1.144124995293
C           -2.060026501075     1.607246523050     0.554400171837
H           -1.190137387811     1.425009118108     1.181848544517
H           -2.948624340445     1.392795917209     1.149961583019
H           -2.074477566282     2.668853782839     0.305973509735
C            2.325280431925    -0.322379160009    -0.164208292235
H            2.857967326883    -1.067013821755     0.433543277630
H            2.006038396826    -0.830229049636    -1.077349675938
C           -2.055031191414     0.748192211619    -0.707642095905
H           -2.939191564063     1.008902713659    -1.293620045351
H           -1.194847226238     0.998859513729    -1.334693641471
C            1.105021160555     0.155675002742     0.615551908735
H            0.605735725137     0.941892606551     0.044083939061
H            1.447628498421     0.618855839390     1.545829630624
C            0.122569631746    -0.973921938068     0.934321236074
H           -0.551955334779    -0.675904840610     1.740957942796
H            0.702543879197    -1.815783291040     1.323142895371
C           -0.710784518946    -1.441886267212    -0.266737952074
H           -0.130835585951    -1.311826176341    -1.185436607542
H           -0.892665148637    -2.515546200904    -0.177803350483
C           -2.071140835979    -0.762681002522    -0.443759646247
H           -2.572488375240    -1.256974453764    -1.279638997929
H           -2.686811960518    -0.960898778553     0.439964213484
}

set globals {
  reference rhf
  g_convergence gau_verytight
  basis aug-cc-pvtz
  freeze_core true
  scf_type df
  mp_type df
}
optimize('mp2')
--------------------------------------------------------------------------

    Molecular point group: c1
  Charge       = 0
  Multiplicity = 1
  Basis Set: AUG-CC-PVTZ
  Basis Set:
  @DF-RHF Final Energy:  -313.53330521613350
    Total Energy =                       -313.5333052161332716
  Basis Set:
    Molecular point group: c1
  Basis Set: AUG-CC-PVTZ
  Basis Set:
  Basis Set:
	 Reference Energy          =    -313.5333052161334990 [Eh]
	 Singles Energy            =      -0.0000000000000004 [Eh]
	 Same-Spin Energy          =      -0.3171682258377093 [Eh]
	 Opposite-Spin Energy      =      -1.1269838795369411 [Eh]
	 Correlation Energy        =      -1.4441521053746509 [Eh]
	 Total Energy              =    -314.9774573215081546 [Eh]
	 SCS Total Energy          =    -314.9914086135237312 [Eh]
  Basis Set: AUG-CC-PVTZ
  Basis Set:
  @DF-RHF Final Energy:  -313.53330556888051
    Total Energy =                       -313.5333055688803370
  Basis Set:
  Basis Set: AUG-CC-PVTZ
  Basis Set:
  @DF-RHF Final Energy:  -313.53330528604272
    Total Energy =                       -313.5333052860426051
  @DF-RHF Final Energy:  -313.53330523187736
    Total Energy =                       -313.5333052318776481
  @DF-RHF Final Energy:  -313.53330523937620
    Total Energy =                       -313.5333052393764319
  @DF-RHF Final Energy:  -313.53330518670464
    Total Energy =                       -313.5333051867046379
  @DF-RHF Final Energy:  -313.53330512401999
    Total Energy =                       -313.5333051240196482
  @DF-RHF Final Energy:  -313.53330511833821
    Total Energy =                       -313.5333051183383759
  @DF-RHF Final Energy:  -313.53330518588092
    Total Energy =                       -313.5333051858813178
  @DF-RHF Final Energy:  -313.53330510468766
    Total Energy =                       -313.5333051046877699
  @DF-RHF Final Energy:  -313.53330514642329
    Total Energy =                       -313.5333051464237997
  @DF-RHF Final Energy:  -313.53330514634581
    Total Energy =                       -313.5333051463460379
  @DF-RHF Final Energy:  -313.53330488368130
    Total Energy =                       -313.5333048836814669
  @DF-RHF Final Energy:  -313.53330516314418
    Total Energy =                       -313.5333051631442913
  @DF-RHF Final Energy:  -313.53330296363396
    Total Energy =                       -313.5333029636336732
  @DF-RHF Final Energy:  -313.53330516559413
    Total Energy =                       -313.5333051655943564
  @DF-RHF Final Energy:  -313.53330490718116
    Total Energy =                       -313.5333049071812184
  @DF-RHF Final Energy:  -313.53330511713858
    Total Energy =                       -313.5333051171385250
	 Singles Energy            =      -0.0000000000000002 [Eh]
	 Same-Spin Energy          =      -0.3171683610482377 [Eh]
	 Opposite-Spin Energy      =      -1.1269838459908388 [Eh]
	 Correlation Energy        =      -1.4441522070390767 [Eh]
	 Total Energy              =    -314.9774573241776352 [Eh]
	 SCS Total Energy          =    -314.9914085193436790 [Eh]
  Charge       = 0
  Multiplicity = 1
  Basis Set: AUG-CC-PVTZ
  Basis Set:

    Orbital Energies (a.u.)
    -----------------------

    Doubly Occupied:

       1A    -11.213320     2A    -11.212158     3A    -11.211278
       4A    -11.210742     5A    -11.210266     6A    -11.209684
       7A    -11.207255     8A    -11.205726     9A     -1.093330
      10A     -1.057439    11A     -1.006791    12A     -0.953442
      13A     -0.881996    14A     -0.827378    15A     -0.790559
      16A     -0.760364    17A     -0.646070    18A     -0.621599
      19A     -0.610178    20A     -0.595186    21A     -0.575136
      22A     -0.558477    23A     -0.555817    24A     -0.536045
      25A     -0.507307    26A     -0.500763    27A     -0.492795
      28A     -0.473595    29A     -0.464790    30A     -0.463224
      31A     -0.443631    32A     -0.434611    33A     -0.433932

  @DF-RHF Final Energy:  -313.53330518338697

   => Energetics <=

    Nuclear Repulsion Energy =            402.8057676503111111
    One-Electron Energy =               -1220.7483784263531561
    Two-Electron Energy =                 504.4093055926553006
    DFT Exchange-Correlation Energy =       0.0000000000000000
    Empirical Dispersion Energy =           0.0000000000000000
    PCM Polarization Energy =               0.0000000000000000
    EFP Energy =                            0.0000000000000000
    Total Energy =                       -313.5333051833868012
  Basis Set:
    Molecular point group: c1
  Basis Set: AUG-CC-PVTZ
  Basis Set:
  Basis Set:
	 Reference Energy          =    -313.5333051833869717 [Eh]
	 Singles Energy            =      -0.0000000000000002 [Eh]
	 Same-Spin Energy          =      -0.3171682295961539 [Eh]
	 Opposite-Spin Energy      =      -1.1269839148069876 [Eh]
	 Correlation Energy        =      -1.4441521444031415 [Eh]
	 Total Energy              =    -314.9774573277900913 [Eh]

	 ================> DF-SCS-MP2 Energies <==================
	-----------------------------------------------------------
	 SCS Same-Spin Scale       =       0.3333333333333333 [-]
	 SCS Opposite-Spin Scale   =       1.2000000000000000 [-]
	 SCS Same-Spin Energy      =      -0.1057227431987180 [Eh]
	 SCS Opposite-Spin Energy  =      -1.3523806977683850 [Eh]
	 SCS Correlation Energy    =      -1.4581034409671032 [Eh]
	 SCS Total Energy          =    -314.9914086243540510 [Eh]
	-----------------------------------------------------------

  -Total Gradient:
     Atom            X                  Y                   Z
    ------   -----------------  -----------------  -----------------
       1        0.000000100119     0.000000283190    -0.000000124588
       2       -0.000000282954     0.000000117276     0.000000183397
       3       -0.000000101090    -0.000000113616    -0.000000165154
       4        0.000000206063    -0.000000295195     0.000000254205
       5       -0.000000034781     0.000000255058     0.000000217918
       6       -0.000000161578     0.000000036891    -0.000000070779
       7        0.000000065652     0.000000018777    -0.000000033934
       8        0.000000006658    -0.000000183118     0.000000054078
       9        0.000000201103    -0.000000748944     0.000000060577
      10       -0.000000347010     0.000000425601    -0.000000446641
      11        0.000000171251     0.000000268526     0.000000432635
      12       -0.000000164302    -0.000000011013     0.000000071834
      13       -0.000000006849     0.000000023019     0.000000013955
      14        0.000000160685     0.000000033274    -0.000000115490
      15        0.000000044160     0.000000393818    -0.000000011209
      16        0.000000106351    -0.000000267334     0.000000137647
      17       -0.000000063868    -0.000000102801    -0.000000238707
      18        0.000000068524    -0.000000296959    -0.000000197028
      19       -0.000000122107     0.000000030689     0.000000092619
      20       -0.000000069929     0.000000105139    -0.000000100731
      21        0.000000277113    -0.000000175446    -0.000000081126
      22       -0.000000091792     0.000000056024     0.000000131593
      23        0.000000039198     0.000000131357    -0.000000034566
      24       -0.000000118490    -0.000000029971     0.000000344647
      25       -0.000000080432     0.000000001610    -0.000000107181
      26        0.000000198305     0.000000044148    -0.000000267974

  **** Optimization is complete! (in 19 steps) ****
    Final optimized geometry and variables:
    Molecular point group: c1

    Geometry (in Angstrom), charge = 0, multiplicity = 1:

    C            3.264716204948     0.823038285097    -0.520789517536
    H            4.140742989221     0.471073935571    -1.065053956279
    H            3.610930850208     1.333492907802     0.378890011231
    H            2.755801427268     1.559458294472    -1.144129519510
    C           -2.060027966819     1.607246905019     0.554401708850
    H           -1.190134149799     1.425019784148     1.181846546925
    H           -2.948621266885     1.392788057906     1.149967310439
    H           -2.074491297109     2.668853610736     0.305973318220
    C            2.325280361160    -0.322380783454    -0.164206757770
    H            2.857965959403    -1.067014313764     0.433546176485
    H            2.006038404620    -0.830231895390    -1.077347082011
    C           -2.055029989729     0.748192589386    -0.707640684422
    H           -2.939190185114     1.008903612785    -1.293618991383
    H           -1.194844877174     0.998860867469    -1.334691841345
    C            1.105021751889     0.155677048877     0.615551536867
    H            0.605736633099     0.941893573540     0.044081537197
    H            1.447629401043     0.618859608752     1.545828366340
    C            0.122569074906    -0.973919541671     0.934320383996
    H           -0.551957898200    -0.675901405388     1.740956562203
    H            0.702545222241    -1.815778755896     1.323144634103
    C           -0.710784347938    -1.441886770975    -0.266739047884
    H           -0.130835092554    -1.311826976356    -1.185438187145
    H           -0.892664633277    -2.515546873017    -0.177803424786
    C           -2.071140745605    -0.762681359526    -0.443761188008
    H           -2.572487287045    -1.256971701137    -1.279643548009
    H           -2.686813711584    -0.960901733352     0.439960761281

*** Psi4 exiting successfully. Buy a developer a beer!
