                              Psi4 1.0.0 Driver

  ==> Input File <==

--------------------------------------------------------------------------
memory 60 Gb

molecule molecule_20_psi {
0 1
C           -4.024377127551    -0.734248995812     0.045254806897
H           -5.026513811847    -0.413831839770    -0.238582788264
H           -4.045466382370    -1.005329543578     1.101544666654
H           -3.786300246599    -1.634088698602    -0.523278105005
C            3.913916045766     0.221452400636    -0.150792596091
H            3.923114583182     0.458633257323    -1.216005617175
H            4.918698246435    -0.093471368417     0.129972932471
H            3.693388540554     1.138757799795     0.393346771355
C           -2.990889210616     0.355463649578    -0.211415711712
H           -3.259212324140     1.258056006557     0.343979505969
H           -2.998269511628     0.629686297924    -1.269772823361
C            2.892379469192    -0.871273941964     0.146433456685
H            3.212163813485    -1.798320849605    -0.334568622077
H            2.870786006391    -1.072177801082     1.221205802689
C           -1.582517545434    -0.073131816326     0.182042862953
H           -1.325711758099    -0.983607412951    -0.365486577698
H           -1.568609695472    -0.334832266798     1.245693087336
C           -0.543022432878     1.010420025184    -0.081131581469
H           -0.869863870793     1.932456423783     0.408467219894
H           -0.511146812512     1.225259754933    -1.154316681071
C            0.862547451706     0.658934170226     0.402960892916
H            1.504385611201     1.533905978486     0.280167829790
H            0.831015787227     0.443153167753     1.476466746916
C            1.479838745550    -0.530406440717    -0.325482356670
H            0.843621143563    -1.407790566866    -0.192077960341
H            1.500149693585    -0.319500132288    -1.400459433035
}

set globals {
  reference rhf
  g_convergence gau_verytight
  basis aug-cc-pvtz
  freeze_core true
  scf_type df
  mp_type df
}
optimize('mp2')
--------------------------------------------------------------------------

    Molecular point group: c1
  Charge       = 0
  Multiplicity = 1
  Basis Set: AUG-CC-PVTZ
  Basis Set:
  @DF-RHF Final Energy:  -313.54388549323545
    Total Energy =                       -313.5438854932355071
  Basis Set:
    Molecular point group: c1
  Basis Set: AUG-CC-PVTZ
  Basis Set:
  Basis Set:
	 Reference Energy          =    -313.5438854932354502 [Eh]
	 Singles Energy            =      -0.0000000000000007 [Eh]
	 Same-Spin Energy          =      -0.3154495192563032 [Eh]
	 Opposite-Spin Energy      =      -1.1241907697629259 [Eh]
	 Correlation Energy        =      -1.4396402890192297 [Eh]
	 Total Energy              =    -314.9835257822546737 [Eh]
	 SCS Total Energy          =    -314.9980642567030600 [Eh]
  Basis Set: AUG-CC-PVTZ
  Basis Set:
  @DF-RHF Final Energy:  -313.54388542450323
    Total Energy =                       -313.5438854245034008
  Basis Set:
  Basis Set: AUG-CC-PVTZ
  Basis Set:
  @DF-RHF Final Energy:  -313.54388533819309
    Total Energy =                       -313.5438853381930358
  @DF-RHF Final Energy:  -313.54388534867638
    Total Energy =                       -313.5438853486764401
  @DF-RHF Final Energy:  -313.54388541989545
    Total Energy =                       -313.5438854198956733
  @DF-RHF Final Energy:  -313.54388450989683
    Total Energy =                       -313.5438845098969409
  @DF-RHF Final Energy:  -313.54388539037495
    Total Energy =                       -313.5438853903750100
	 Singles Energy            =      -0.0000000000000003 [Eh]
	 Same-Spin Energy          =      -0.3154495106376098 [Eh]
	 Opposite-Spin Energy      =      -1.1241908834063632 [Eh]
	 Correlation Energy        =      -1.4396403940439733 [Eh]
	 Total Energy              =    -314.9835257844189300 [Eh]
	 SCS Total Energy          =    -314.9980642873417764 [Eh]
  Charge       = 0
  Multiplicity = 1
  Basis Set: AUG-CC-PVTZ
  Basis Set:

    Orbital Energies (a.u.)
    -----------------------

    Doubly Occupied:

       1A    -11.212733     2A    -11.212237     3A    -11.210487
       4A    -11.209886     5A    -11.209330     6A    -11.209168
       7A    -11.206948     8A    -11.206353     9A     -1.093603
      10A     -1.060952    11A     -1.010635    12A     -0.944366
      13A     -0.887814    14A     -0.819038    15A     -0.791592
      16A     -0.763442    17A     -0.642399    18A     -0.630458
      19A     -0.612858    20A     -0.590753    21A     -0.580605
      22A     -0.554161    23A     -0.544354    24A     -0.537999
      25A     -0.511636    26A     -0.504694    27A     -0.480200
      28A     -0.474286    29A     -0.467262    30A     -0.460122
      31A     -0.454125    32A     -0.436290    33A     -0.435256

  @DF-RHF Final Energy:  -313.54388537912422

   => Energetics <=

    Nuclear Repulsion Energy =            385.3399643042263847
    One-Electron Energy =               -1185.8356092375559001
    Two-Electron Energy =                 486.9517595542053527
    DFT Exchange-Correlation Energy =       0.0000000000000000
    Empirical Dispersion Energy =           0.0000000000000000
    PCM Polarization Energy =               0.0000000000000000
    EFP Energy =                            0.0000000000000000
    Total Energy =                       -313.5438853791241058
  Basis Set:
    Molecular point group: c1
  Basis Set: AUG-CC-PVTZ
  Basis Set:
  Basis Set:
	 Reference Energy          =    -313.5438853791242195 [Eh]
	 Singles Energy            =      -0.0000000000000003 [Eh]
	 Same-Spin Energy          =      -0.3154495313182284 [Eh]
	 Opposite-Spin Energy      =      -1.1241908703339420 [Eh]
	 Correlation Energy        =      -1.4396404016521707 [Eh]
	 Total Energy              =    -314.9835257807764037 [Eh]

	 ================> DF-SCS-MP2 Energies <==================
	-----------------------------------------------------------
	 SCS Same-Spin Scale       =       0.3333333333333333 [-]
	 SCS Opposite-Spin Scale   =       1.2000000000000000 [-]
	 SCS Same-Spin Energy      =      -0.1051498437727428 [Eh]
	 SCS Opposite-Spin Energy  =      -1.3490290444007305 [Eh]
	 SCS Correlation Energy    =      -1.4541788881734734 [Eh]
	 SCS Total Energy          =    -314.9980642672977069 [Eh]
	-----------------------------------------------------------

  -Total Gradient:
     Atom            X                  Y                   Z
    ------   -----------------  -----------------  -----------------
       1       -0.000000070926     0.000000012553     0.000000022508
       2        0.000000042601    -0.000000018291     0.000000022669
       3        0.000000007203     0.000000027672    -0.000000068499
       4       -0.000000010198     0.000000054068     0.000000020171
       5       -0.000000083385    -0.000000122221     0.000000066378
       6        0.000000030513     0.000000068615    -0.000000220930
       7        0.000000135309    -0.000000077068     0.000000051643
       8       -0.000000063457     0.000000194815     0.000000075748
       9        0.000000001400     0.000000176044    -0.000000070876
      10        0.000000096681    -0.000000170458    -0.000000064952
      11        0.000000029462    -0.000000046849     0.000000146270
      12        0.000000136506     0.000000305475    -0.000000124182
      13        0.000000125052    -0.000000248706    -0.000000153271
      14       -0.000000000847    -0.000000064172     0.000000291864
      15        0.000000242513    -0.000000435322     0.000000209538
      16       -0.000000098767     0.000000273374     0.000000141165
      17        0.000000029792     0.000000200054    -0.000000411691
      18       -0.000000215918     0.000000202632    -0.000000035604
      19        0.000000058728    -0.000000226602    -0.000000105863
      20       -0.000000038436    -0.000000057586     0.000000251457
      21       -0.000000472241     0.000000163594     0.000000152222
      22        0.000000087288    -0.000000015405    -0.000000011159
      23       -0.000000039014     0.000000022316    -0.000000088618
      24        0.000000226082    -0.000000103160     0.000000175120
      25       -0.000000070061    -0.000000135080     0.000000011023
      26       -0.000000085879     0.000000019708    -0.000000282130

  **** Optimization is complete! (in 8 steps) ****
    Final optimized geometry and variables:
    Molecular point group: c1

    Geometry (in Angstrom), charge = 0, multiplicity = 1:

    C           -4.024378780252    -0.734244414495     0.045245125384
    H           -5.026513931495    -0.413825139932    -0.238596254456
    H           -4.045472817223    -1.005325155057     1.101535189570
    H           -3.786301608732    -1.634084885616    -0.523287052395
    C            3.913911013609     0.221459228306    -0.150807847115
    H            3.923100091043     0.458632585607    -1.216022948254
    H            4.918697591473    -0.093455921182     0.129952409077
    H            3.693381675644     1.138767504168     0.393326534333
    C           -2.990887803469     0.355466240419    -0.211421703993
    H           -3.259212703240     1.258059618501     0.343972145893
    H           -2.998263789388     0.629688948043    -1.269779400896
    C            2.892384397790    -0.871272077995     0.146433886111
    H            3.212170419315    -1.798319664275    -0.334566751437
    H            2.870802857829    -1.072170657959     1.221207924390
    C           -1.582518482878    -0.073131766526     0.182043189689
    H           -1.325710160655    -0.983607549836    -0.365486755366
    H           -1.568617132850    -0.334835485339     1.245693749302
    C           -0.543019548347     1.010418776960    -0.081122922255
    H           -0.869860551328     1.932454617282     0.408479298115
    H           -0.511139776621     1.225263404612    -1.154307760797
    C            0.862548016723     0.658927322416     0.402972068474
    H            1.504389894051     1.533897411858     0.280180027091
    H            0.831013898059     0.443146490828     1.476478756978
    C            1.479836901392    -0.530415180848    -0.325470202577
    H            0.843623623664    -1.407801788476    -0.192055202998
    H            1.500137636338    -0.319515141771    -1.400449626011

*** Psi4 exiting successfully. Buy a developer a beer!
