                              Psi4 1.0.0 Driver

  ==> Input File <==

--------------------------------------------------------------------------
memory 60 Gb

molecule molecule_89_psi {
0 1
C           -3.125518508867     0.846168348225     0.352440645217
H           -3.812833746617     0.772023835186    -0.491369092710
H           -2.382179640205     1.602155955311     0.105952406726
H           -3.692470159625     1.199875201630     1.213902128242
C            3.125549942275    -0.845658995500     0.353390487145
H            2.382190211981    -1.602002896736     0.108059858766
H            3.692578897029    -1.198120994377     1.215311258022
H            3.812790071052    -0.772731290076    -0.490586650971
C           -2.484421521005    -0.510913147468     0.631024818917
H           -3.277617999606    -1.219208841496     0.877877249473
H           -1.847707832908    -0.447461268576     1.518531640912
C            2.484474708166     0.511821698180     0.630072141031
H            1.847835783499     0.449649141600     1.517723554303
H            3.277691306736     1.220473730381     0.875835625206
C           -1.659302732319    -1.060124272057    -0.541839388157
H           -2.064992808337    -0.671251906312    -1.481347300038
H           -1.770674756172    -2.145735261226    -0.586026083505
C           -0.165396531599    -0.744444612033    -0.464384594437
H            0.236440990932    -1.206203915666     0.442033682637
H            0.343329206724    -1.220049411254    -1.308859131239
C            0.165355712284     0.743776785141    -0.465478263282
H           -0.343440296394     1.218154686388    -1.310600708142
H           -0.236407592307     1.206850836906     0.440302375752
C            1.659256760612     1.059339658657    -0.543514586661
H            2.064866144875     0.669107786744    -1.482494261982
H            1.770628062564     2.144885836005    -0.589280794238
}

set globals {
  reference rhf
  g_convergence gau_verytight
  basis aug-cc-pvtz
  freeze_core true
  scf_type df
  mp_type df
}
optimize('mp2')
--------------------------------------------------------------------------

    Molecular point group: c1
  Charge       = 0
  Multiplicity = 1
  Basis Set: AUG-CC-PVTZ
  Basis Set:
  @DF-RHF Final Energy:  -313.53391628891995
    Total Energy =                       -313.5339162889198406
  Basis Set:
    Molecular point group: c1
  Basis Set: AUG-CC-PVTZ
  Basis Set:
  Basis Set:
	 Reference Energy          =    -313.5339162889199542 [Eh]
	 Singles Energy            =      -0.0000000000000001 [Eh]
	 Same-Spin Energy          =      -0.3167080760661849 [Eh]
	 Opposite-Spin Energy      =      -1.1265347711729179 [Eh]
	 Correlation Energy        =      -1.4432428472391028 [Eh]
	 Total Energy              =    -314.9771591361590595 [Eh]
	 SCS Total Energy          =    -314.9913273730161904 [Eh]
  Basis Set: AUG-CC-PVTZ
  Basis Set:
  @DF-RHF Final Energy:  -313.53391626350623
    Total Energy =                       -313.5339162635064554
  Basis Set:
  Basis Set: AUG-CC-PVTZ
  Basis Set:
  @DF-RHF Final Energy:  -313.53391644003113
    Total Energy =                       -313.5339164400311347
  @DF-RHF Final Energy:  -313.53391630284744
    Total Energy =                       -313.5339163028476150
  @DF-RHF Final Energy:  -313.53391632048067
    Total Energy =                       -313.5339163204810120
  @DF-RHF Final Energy:  -313.53391648050518
    Total Energy =                       -313.5339164805051837
  @DF-RHF Final Energy:  -313.53391634586268
    Total Energy =                       -313.5339163458631901
  @DF-RHF Final Energy:  -313.53391646011102
    Total Energy =                       -313.5339164601112429
  @DF-RHF Final Energy:  -313.53391617255238
    Total Energy =                       -313.5339161725522672
  @DF-RHF Final Energy:  -313.53391633490003
    Total Energy =                       -313.5339163349000273
  @DF-RHF Final Energy:  -313.53391633800942
    Total Energy =                       -313.5339163380094192
  @DF-RHF Final Energy:  -313.53391637832345
    Total Energy =                       -313.5339163783233403
  @DF-RHF Final Energy:  -313.53391633490008
    Total Energy =                       -313.5339163349001979
  @DF-RHF Final Energy:  -313.53391640078871
    Total Energy =                       -313.5339164007886552
  @DF-RHF Final Energy:  -313.53391631351019
    Total Energy =                       -313.5339163135106446
  @DF-RHF Final Energy:  -313.53391634898884
    Total Energy =                       -313.5339163489887824
	 Singles Energy            =      -0.0000000000000002 [Eh]
	 Same-Spin Energy          =      -0.3167080874446648 [Eh]
	 Opposite-Spin Energy      =      -1.1265346973004924 [Eh]
	 Correlation Energy        =      -1.4432427847451574 [Eh]
	 Total Energy              =    -314.9771591337340055 [Eh]
	 SCS Total Energy          =    -314.9913273482309819 [Eh]
  Charge       = 0
  Multiplicity = 1
  Basis Set: AUG-CC-PVTZ
  Basis Set:

    Orbital Energies (a.u.)
    -----------------------

    Doubly Occupied:

       1A    -11.213015     2A    -11.213015     3A    -11.211083
       4A    -11.210833     5A    -11.210457     6A    -11.210081
       7A    -11.205809     8A    -11.205809     9A     -1.093770
      10A     -1.057708    11A     -1.004351    12A     -0.953122
      13A     -0.884894    14A     -0.827119    15A     -0.785751
      16A     -0.762650    17A     -0.637241    18A     -0.632163
      19A     -0.611920    20A     -0.586523    21A     -0.586414
      22A     -0.560008    23A     -0.542028    24A     -0.538359
      25A     -0.506821    26A     -0.500867    27A     -0.493562
      28A     -0.471543    29A     -0.467470    30A     -0.465490
      31A     -0.445533    32A     -0.436389    33A     -0.428706

  @DF-RHF Final Energy:  -313.53391632072885

   => Energetics <=

    Nuclear Repulsion Energy =            398.5313419204813954
    One-Electron Energy =               -1212.2095138258862335
    Two-Electron Energy =                 500.1442555846759319
    DFT Exchange-Correlation Energy =       0.0000000000000000
    Empirical Dispersion Energy =           0.0000000000000000
    PCM Polarization Energy =               0.0000000000000000
    EFP Energy =                            0.0000000000000000
    Total Energy =                       -313.5339163207289062
  Basis Set:
    Molecular point group: c1
  Basis Set: AUG-CC-PVTZ
  Basis Set:
  Basis Set:
	 Reference Energy          =    -313.5339163207288493 [Eh]
	 Singles Energy            =      -0.0000000000000002 [Eh]
	 Same-Spin Energy          =      -0.3167080821561181 [Eh]
	 Opposite-Spin Energy      =      -1.1265347306951914 [Eh]
	 Correlation Energy        =      -1.4432428128513097 [Eh]
	 Total Energy              =    -314.9771591335801872 [Eh]

	 ================> DF-SCS-MP2 Energies <==================
	-----------------------------------------------------------
	 SCS Same-Spin Scale       =       0.3333333333333333 [-]
	 SCS Opposite-Spin Scale   =       1.2000000000000000 [-]
	 SCS Same-Spin Energy      =      -0.1055693607187060 [Eh]
	 SCS Opposite-Spin Energy  =      -1.3518416768342296 [Eh]
	 SCS Correlation Energy    =      -1.4574110375529359 [Eh]
	 SCS Total Energy          =    -314.9913273582818078 [Eh]
	-----------------------------------------------------------

  -Total Gradient:
     Atom            X                  Y                   Z
    ------   -----------------  -----------------  -----------------
       1       -0.000000011893    -0.000000049584    -0.000000055147
       2       -0.000000014908    -0.000000017332    -0.000000016228
       3       -0.000000046589    -0.000000033694     0.000000033224
       4        0.000000002483    -0.000000057037    -0.000000043495
       5        0.000000112345    -0.000000233326    -0.000000051370
       6        0.000000152082     0.000000186822     0.000000059188
       7       -0.000000107030     0.000000052408    -0.000000177486
       8       -0.000000133278     0.000000024766     0.000000157325
       9       -0.000000001336     0.000000084898     0.000000101256
      10        0.000000010147    -0.000000046722    -0.000000024590
      11        0.000000000867    -0.000000029186    -0.000000045822
      12       -0.000000074749     0.000000234656     0.000000234299
      13        0.000000173109     0.000000023892    -0.000000228085
      14       -0.000000190870    -0.000000109747     0.000000008282
      15        0.000000091013     0.000000166120     0.000000196233
      16       -0.000000031659     0.000000045767    -0.000000040956
      17        0.000000010275    -0.000000081427     0.000000025543
      18       -0.000000075969    -0.000000366967    -0.000000168770
      19        0.000000051880     0.000000115054    -0.000000083164
      20        0.000000031271     0.000000119219     0.000000113296
      21       -0.000000395348     0.000000025779     0.000000028283
      22        0.000000163515    -0.000000056807     0.000000278747
      23        0.000000254784    -0.000000107216    -0.000000270721
      24        0.000000196740     0.000000259381    -0.000000288425
      25       -0.000000148469     0.000000130121     0.000000281034
      26       -0.000000018414    -0.000000279839    -0.000000022448

  **** Optimization is complete! (in 17 steps) ****
    Final optimized geometry and variables:
    Molecular point group: c1

    Geometry (in Angstrom), charge = 0, multiplicity = 1:

    C           -3.125520143612     0.846166548044     0.352444546533
    H           -3.812839999591     0.772017453502    -0.491360813860
    H           -2.382184201690     1.602154684595     0.105948795385
    H           -3.692467453309     1.199875523546     1.213907738784
    C            3.125550349955    -0.845656654004     0.353395915893
    H            2.382193486355    -1.601997934411     0.108050620928
    H            3.692566521110    -1.198123919932     1.215322273468
    H            3.812801817640    -0.772725455644    -0.490570854641
    C           -2.484418264898    -0.510912106162     0.631028921838
    H           -3.277610497455    -1.219210354199     0.877887531250
    H           -1.847699280289    -0.447456649206     1.518531481788
    C            2.484472271660     0.511823206477     0.630073947048
    H            1.847828540418     0.449649521519     1.517720878791
    H            3.277684709415     1.220477348115     0.875842398376
    C           -1.659305253931    -1.060120873682    -0.541840897890
    H           -2.064998749142    -0.671243237959    -1.481345301886
    H           -1.770679769238    -2.145731582377    -0.586032879594
    C           -0.165397705927    -0.744445413330    -0.464391776185
    H            0.236443323606    -1.206206910303     0.442023967121
    H            0.343324748341    -1.220048602033    -1.308869317492
    C            0.165357499605     0.743774737456    -0.465481594605
    H           -0.343438481878     1.218158173495    -1.310600562062
    H           -0.236401739319     1.206846204201     0.440301757196
    C            1.659259186587     1.059335842120    -0.543518355628
    H            2.064870084127     0.669098045600    -1.482493938645
    H            1.770631475649     2.144881014222    -0.589291435936

*** Psi4 exiting successfully. Buy a developer a beer!
