                              Psi4 1.0.0 Driver

  ==> Input File <==

--------------------------------------------------------------------------
memory 60 Gb

molecule molecule_37_psi {
0 1
C            2.757890791741     1.337731172206     0.174833050079
H            2.503270394812     1.373924699284     1.235561069852
H            2.007966057163     1.912201032561    -0.367606105110
H            3.715734444595     1.840785536841     0.043969486499
C           -2.268869575276     1.568827488476     0.136381691295
H           -3.095086963125     2.279655327439     0.148635055860
H           -1.925690821775     1.480673356061    -0.894272054290
H           -1.453579872943     1.991976031374     0.725825436316
C            2.822301367473    -0.106657308212    -0.311181522658
H            3.648133660902    -0.615265151809     0.191148487387
H            3.050764204674    -0.125812051931    -1.380461392898
C           -2.702027651950     0.219040405585     0.697759846397
H           -3.125492409597     0.364249467881     1.694417353848
H           -3.504477156625    -0.189272163253     0.077007043055
C            1.532095745535    -0.884191864563    -0.059485150874
H            1.298152505067    -0.844103143558     1.008797737314
H            1.690080468580    -1.939173457310    -0.301876347475
C            0.344365614956    -0.376541039477    -0.871124633614
H            0.589694823063    -0.464825148893    -1.933940126847
H            0.185027865694     0.684448708906    -0.673561401504
C           -0.943158587689    -1.149002023357    -0.575217545249
H           -1.678432371710    -0.958841563207    -1.362837724005
H           -0.715833806853    -2.217252070180    -0.624392086139
C           -1.576663978864    -0.811713200175     0.783429015926
H           -1.978445625934    -1.718940797275     1.239284639429
H           -0.806164106695    -0.443219963724     1.467271409671
}

set globals {
  reference rhf
  g_convergence gau_verytight
  basis aug-cc-pvtz
  freeze_core true
  scf_type df
  mp_type df
}
optimize('mp2')
--------------------------------------------------------------------------

    Molecular point group: c1
  Charge       = 0
  Multiplicity = 1
  Basis Set: AUG-CC-PVTZ
  Basis Set:
  @DF-RHF Final Energy:  -313.53693964644589
    Total Energy =                       -313.5369396464457168
  Basis Set:
    Molecular point group: c1
  Basis Set: AUG-CC-PVTZ
  Basis Set:
  Basis Set:
	 Reference Energy          =    -313.5369396464458873 [Eh]
	 Singles Energy            =      -0.0000000000000005 [Eh]
	 Same-Spin Energy          =      -0.3167846618303393 [Eh]
	 Opposite-Spin Energy      =      -1.1262624074624767 [Eh]
	 Correlation Energy        =      -1.4430470692928163 [Eh]
	 Total Energy              =    -314.9799867157386757 [Eh]
	 SCS Total Energy          =    -314.9940494226776195 [Eh]
  Basis Set: AUG-CC-PVTZ
  Basis Set:
  @DF-RHF Final Energy:  -313.53694010895094
    Total Energy =                       -313.5369401089511712
  Basis Set:
  Basis Set: AUG-CC-PVTZ
  Basis Set:
  @DF-RHF Final Energy:  -313.53694007826101
    Total Energy =                       -313.5369400782609546
  @DF-RHF Final Energy:  -313.53694413456321
    Total Energy =                       -313.5369441345631571
  @DF-RHF Final Energy:  -313.53693970866169
    Total Energy =                       -313.5369397086614072
  @DF-RHF Final Energy:  -313.53694083216459
    Total Energy =                       -313.5369408321646461
  @DF-RHF Final Energy:  -313.53693979440050
    Total Energy =                       -313.5369397944005527
  @DF-RHF Final Energy:  -313.53693979240342
    Total Energy =                       -313.5369397924034729
  @DF-RHF Final Energy:  -313.53694165380062
    Total Energy =                       -313.5369416538005680
  @DF-RHF Final Energy:  -313.53693978245428
    Total Energy =                       -313.5369397824540556
  @DF-RHF Final Energy:  -313.53694034155353
    Total Energy =                       -313.5369403415534748
  @DF-RHF Final Energy:  -313.53693972364835
    Total Energy =                       -313.5369397236484588
  @DF-RHF Final Energy:  -313.53693968628062
    Total Energy =                       -313.5369396862807321
  @DF-RHF Final Energy:  -313.53693983788133
    Total Energy =                       -313.5369398378812207
  @DF-RHF Final Energy:  -313.53693976307335
    Total Energy =                       -313.5369397630734056
  @DF-RHF Final Energy:  -313.53693978482062
    Total Energy =                       -313.5369397848206177
  @DF-RHF Final Energy:  -313.53693971687869
    Total Energy =                       -313.5369397168786918
  @DF-RHF Final Energy:  -313.53693983670075
    Total Energy =                       -313.5369398367003555
  @DF-RHF Final Energy:  -313.53693970805466
    Total Energy =                       -313.5369397080547742
  @DF-RHF Final Energy:  -313.53693969781887
    Total Energy =                       -313.5369396978185250
  @DF-RHF Final Energy:  -313.53693981930553
    Total Energy =                       -313.5369398193054735
  @DF-RHF Final Energy:  -313.53693966436629
    Total Energy =                       -313.5369396643662867
  @DF-RHF Final Energy:  -313.53693971601444
    Total Energy =                       -313.5369397160143308
  @DF-RHF Final Energy:  -313.53693970861389
    Total Energy =                       -313.5369397086138292
  @DF-RHF Final Energy:  -313.53694257609817
    Total Energy =                       -313.5369425760977720
  @DF-RHF Final Energy:  -313.53693970141256
    Total Energy =                       -313.5369397014124502
  @DF-RHF Final Energy:  -313.53693972382473
    Total Energy =                       -313.5369397238245028
  @DF-RHF Final Energy:  -313.53693971934081
    Total Energy =                       -313.5369397193405234
  @DF-RHF Final Energy:  -313.53693961104693
    Total Energy =                       -313.5369396110469324
  @DF-RHF Final Energy:  -313.53693959645096
    Total Energy =                       -313.5369395964509067
  @DF-RHF Final Energy:  -313.53693967930866
    Total Energy =                       -313.5369396793090004
  @DF-RHF Final Energy:  -313.53693971385832
    Total Energy =                       -313.5369397138586010
  @DF-RHF Final Energy:  -313.53693970258439
    Total Energy =                       -313.5369397025844478
  @DF-RHF Final Energy:  -313.53693966823448
    Total Energy =                       -313.5369396682344245
  @DF-RHF Final Energy:  -313.53693965439413
    Total Energy =                       -313.5369396543943594
  @DF-RHF Final Energy:  -313.53693959712831
    Total Energy =                       -313.5369395971284803
  @DF-RHF Final Energy:  -313.53693959885521
    Total Energy =                       -313.5369395988551560
  @DF-RHF Final Energy:  -313.53693964251738
    Total Energy =                       -313.5369396425172681
  @DF-RHF Final Energy:  -313.53693966566283
    Total Energy =                       -313.5369396656629988
	 Singles Energy            =      -0.0000000000000003 [Eh]
	 Same-Spin Energy          =      -0.3167846883759616 [Eh]
	 Opposite-Spin Energy      =      -1.1262623616875307 [Eh]
	 Correlation Energy        =      -1.4430470500634927 [Eh]
	 Total Energy              =    -314.9799867157263407 [Eh]
	 SCS Total Energy          =    -314.9940493958131924 [Eh]
  Charge       = 0
  Multiplicity = 1
  Basis Set: AUG-CC-PVTZ
  Basis Set:

    Orbital Energies (a.u.)
    -----------------------

    Doubly Occupied:

       1A    -11.213097     2A    -11.212648     3A    -11.210448
       4A    -11.209804     5A    -11.209523     6A    -11.208341
       7A    -11.207098     8A    -11.206740     9A     -1.093817
      10A     -1.059775    11A     -1.006198    12A     -0.944337
      13A     -0.892603    14A     -0.826849    15A     -0.785698
      16A     -0.757934    17A     -0.642891    18A     -0.627647
      19A     -0.605634    20A     -0.600342    21A     -0.590562
      22A     -0.549620    23A     -0.543280    24A     -0.527102
      25A     -0.521197    26A     -0.501671    27A     -0.494520
      28A     -0.470281    29A     -0.464287    30A     -0.461335
      31A     -0.442989    32A     -0.439499    33A     -0.432908

  @DF-RHF Final Energy:  -313.53693969811525

   => Energetics <=

    Nuclear Repulsion Energy =            399.4644825326724913
    One-Electron Energy =               -1214.0814973220381034
    Two-Electron Energy =                 501.0800750912507056
    DFT Exchange-Correlation Energy =       0.0000000000000000
    Empirical Dispersion Energy =           0.0000000000000000
    PCM Polarization Energy =               0.0000000000000000
    EFP Energy =                            0.0000000000000000
    Total Energy =                       -313.5369396981149066
  Basis Set:
    Molecular point group: c1
  Basis Set: AUG-CC-PVTZ
  Basis Set:
  Basis Set:
	 Reference Energy          =    -313.5369396981152477 [Eh]
	 Singles Energy            =      -0.0000000000000003 [Eh]
	 Same-Spin Energy          =      -0.3167846749445615 [Eh]
	 Opposite-Spin Energy      =      -1.1262623396576097 [Eh]
	 Correlation Energy        =      -1.4430470146021714 [Eh]
	 Total Energy              =    -314.9799867127173911 [Eh]

	 ================> DF-SCS-MP2 Energies <==================
	-----------------------------------------------------------
	 SCS Same-Spin Scale       =       0.3333333333333333 [-]
	 SCS Opposite-Spin Scale   =       1.2000000000000000 [-]
	 SCS Same-Spin Energy      =      -0.1055948916481872 [Eh]
	 SCS Opposite-Spin Energy  =      -1.3515148075891317 [Eh]
	 SCS Correlation Energy    =      -1.4571096992373191 [Eh]
	 SCS Total Energy          =    -314.9940493973525690 [Eh]
	-----------------------------------------------------------

  -Total Gradient:
     Atom            X                  Y                   Z
    ------   -----------------  -----------------  -----------------
       1       -0.000000060554    -0.000000626537    -0.000000216095
       2       -0.000000123624     0.000000085922     0.000000482206
       3       -0.000000379104     0.000000323555    -0.000000220077
       4        0.000000355224     0.000000137612    -0.000000088349
       5       -0.000000535909    -0.000000566147     0.000000547804
       6       -0.000000343360     0.000000166186     0.000000076113
       7        0.000000316580    -0.000000017161    -0.000001104602
       8        0.000000699357     0.000000370989     0.000000370577
       9       -0.000000554694     0.000000419334     0.000000399291
      10        0.000000466404    -0.000000165539     0.000000249934
      11        0.000000114281    -0.000000018676    -0.000000531265
      12        0.000001880063     0.000000541405    -0.000000063946
      13       -0.000000502870     0.000000237380     0.000001291717
      14       -0.000001389029    -0.000000749517    -0.000000991913
      15       -0.000000817761     0.000000420805    -0.000000647938
      16       -0.000000229400    -0.000000111437     0.000000920022
      17        0.000000379021    -0.000000739074    -0.000000202363
      18        0.000000826200    -0.000000462970     0.000000130384
      19        0.000000019893    -0.000000326329    -0.000000739104
      20        0.000000042534     0.000000935181    -0.000000040294
      21        0.000001014883     0.000000509503    -0.000000028783
      22       -0.000000657771     0.000000166409    -0.000000478040
      23        0.000000374755    -0.000000670281    -0.000000059887
      24       -0.000001389845     0.000000675227    -0.000000148746
      25       -0.000000449589    -0.000000813971     0.000000175040
      26        0.000000944315     0.000000278133     0.000000918316

  **** Optimization is complete! (in 42 steps) ****
    Final optimized geometry and variables:
    Molecular point group: c1

    Geometry (in Angstrom), charge = 0, multiplicity = 1:

    C            2.757916216968     1.337705011752     0.174875239725
    H            2.503313297133     1.373858419059     1.235608278187
    H            2.007988382235     1.912203381017    -0.367528467901
    H            3.715761552882     1.840756455468     0.044016612238
    C           -2.268898454866     1.568816528921     0.136402660021
    H           -3.095121823593     2.279636307358     0.148687798527
    H           -1.925754245787     1.480671589272    -0.894263425578
    H           -1.453593191121     1.991969528850     0.725821161349
    C            2.822305640226    -0.106664610202    -0.311197613804
    H            3.648136598824    -0.615301932635     0.191103595496
    H            3.050757696192    -0.125779136391    -1.380479662128
    C           -2.702028230248     0.219023246211     0.697786522975
    H           -3.125468667154     0.364221887957     1.694456779213
    H           -3.504492386798    -0.189292453516     0.077052144568
    C            1.532092181819    -0.884192525942    -0.059520698543
    H            1.298157093761    -0.844138214996     1.008765031653
    H            1.690063386575    -1.939167215192    -0.301948569718
    C            0.344362698509    -0.376499212757    -0.871133244756
    H            0.589681245864    -0.464749194215    -1.933953071820
    H            0.185037928979     0.684483918984    -0.673533075307
    C           -0.943159398733    -1.148968153826    -0.575241678411
    H           -1.678438180566    -0.958787421402    -1.362851409349
    H           -0.715833654149    -2.217216162775    -0.624446714718
    C           -1.576656239340    -0.811722380521     0.783419119880
    H           -1.978428855234    -1.718966430224     1.239250336363
    H           -0.806153085499    -0.443245557123     1.467266056392

*** Psi4 exiting successfully. Buy a developer a beer!
