                              Psi4 1.0.0 Driver

  ==> Input File <==

--------------------------------------------------------------------------
memory 30 Gb

molecule molecule_34_psi {
0 1
symmetry c1
    C           -3.396107033549    -1.157125798651     0.096271747088
    H           -3.462105789489    -2.204809422215     0.380487371683
    H           -3.914503471365    -1.031729562275    -0.852668279425
    H           -3.927894714594    -0.571849780626     0.844523166518
    C            3.374043264549    -1.184249058860    -0.251917143567
    H            2.792802339107    -2.021809936488    -0.633643056241
    H            3.721288835338    -1.449394800207     0.745269210401
    H            4.246244419979    -1.061693247123    -0.889958181903
    C           -1.954234753538    -0.696655175347    -0.015013941727
    H           -1.428100429879    -1.303468476964    -0.754584890189
    H           -1.448501239839    -0.857812124522     0.937040416984
    C            2.529883906849     0.075544913502    -0.207393720137
    H            3.132506767467     0.913464975020     0.147579890521
    H            2.204237343745     0.333667929887    -1.215699409090
    C           -1.854509204658     0.765962234153    -0.407404725528
    H           -2.354230369386     1.369231780098     0.355000576823
    H           -2.409719318776     0.917939975530    -1.335588913402
    C           -0.432946363581     1.277599403209    -0.583595342658
    H           -0.477175561453     2.318683058126    -0.903127202617
    H            0.043743585067     0.728396390948    -1.398377332000
    C            0.418748734442     1.155442524919     0.682075707681
    H            1.047596429533     2.040335302588     0.792999080696
    H           -0.242623767897     1.139721609869     1.550637313564
    C            1.320119913905    -0.072246708294     0.697511999276
    H            1.665722774166    -0.264189810332     1.715334643198
    H            0.751196308769    -0.950646407231     0.389342150062
}

set globals {
  reference rhf
  g_convergence gau_verytight
  basis aug-cc-pvtz
  freeze_core true
  scf_type df
  mp_type df
}
optimize('mp2')
--------------------------------------------------------------------------

    Molecular point group: c1
  Charge       = 0
  Multiplicity = 1
  Basis Set: AUG-CC-PVTZ
  Basis Set:
  @DF-RHF Final Energy:  -313.53857331483391
    Total Energy =                       -313.5385733148337977
  Basis Set:
    Molecular point group: c1
  Basis Set: AUG-CC-PVTZ
  Basis Set:
  Basis Set:
	 Reference Energy          =    -313.5385733148339114 [Eh]
	 Singles Energy            =      -0.0000000000000005 [Eh]
	 Same-Spin Energy          =      -0.3167133698670253 [Eh]
	 Opposite-Spin Energy      =      -1.1252259278600278 [Eh]
	 Correlation Energy        =      -1.4419392977270535 [Eh]
	 Total Energy              =    -314.9805126125609718 [Eh]
	 SCS Total Energy          =    -314.9944155515549369 [Eh]
  Basis Set: AUG-CC-PVTZ
  Basis Set:
  @DF-RHF Final Energy:  -313.53881906535838
    Total Energy =                       -313.5388190653587230
  Basis Set:
  Basis Set: AUG-CC-PVTZ
  Basis Set:
  @DF-RHF Final Energy:  -313.53892690716231
    Total Energy =                       -313.5389269071623062
  @DF-RHF Final Energy:  -313.53892314941027
    Total Energy =                       -313.5389231494104365
  @DF-RHF Final Energy:  -313.53894270640632
    Total Energy =                       -313.5389427064064876
  @DF-RHF Final Energy:  -313.53893977648301
    Total Energy =                       -313.5389397764830619
  @DF-RHF Final Energy:  -313.53894598567899
    Total Energy =                       -313.5389459856785379
  @DF-RHF Final Energy:  -313.53894487144044
    Total Energy =                       -313.5389448714404352
  @DF-RHF Final Energy:  -313.53894489554079
    Total Energy =                       -313.5389448955407943
  @DF-RHF Final Energy:  -313.53894460746676
    Total Energy =                       -313.5389446074664193
  @DF-RHF Final Energy:  -313.53894454937887
    Total Energy =                       -313.5389445493787548
  @DF-RHF Final Energy:  -313.53894462541467
    Total Energy =                       -313.5389446254147288
  @DF-RHF Final Energy:  -313.53894441078450
    Total Energy =                       -313.5389444107843815
  @DF-RHF Final Energy:  -313.53894453307680
    Total Energy =                       -313.5389445330768012
  @DF-RHF Final Energy:  -313.53894455188339
    Total Energy =                       -313.5389445518830485
  @DF-RHF Final Energy:  -313.53894451503464
    Total Energy =                       -313.5389445150347001
  @DF-RHF Final Energy:  -313.53894457913276
    Total Energy =                       -313.5389445791328740
  @DF-RHF Final Energy:  -313.53894454654016
    Total Energy =                       -313.5389445465399945
  @DF-RHF Final Energy:  -313.53894476921357
    Total Energy =                       -313.5389447692137423
  @DF-RHF Final Energy:  -313.53894464000189
    Total Energy =                       -313.5389446400019438
  @DF-RHF Final Energy:  -313.53894447418435
    Total Energy =                       -313.5389444741844045
  @DF-RHF Final Energy:  -313.53894446325978
    Total Energy =                       -313.5389444632594405
  @DF-RHF Final Energy:  -313.53894456184418
    Total Energy =                       -313.5389445618441755
  @DF-RHF Final Energy:  -313.53894460096637
    Total Energy =                       -313.5389446009664880
  @DF-RHF Final Energy:  -313.53894445204554
    Total Energy =                       -313.5389444520452003
  @DF-RHF Final Energy:  -313.53894452917348
    Total Energy =                       -313.5389445291733068
  @DF-RHF Final Energy:  -313.53894443959354
    Total Energy =                       -313.5389444395933083
  @DF-RHF Final Energy:  -313.53894454008480
    Total Energy =                       -313.5389445400847990
  @DF-RHF Final Energy:  -313.53894458880217
    Total Energy =                       -313.5389445888019964
  @DF-RHF Final Energy:  -313.53894437047779
    Total Energy =                       -313.5389443704776795
  @DF-RHF Final Energy:  -313.53894464917067
    Total Energy =                       -313.5389446491707304
  @DF-RHF Final Energy:  -313.53894452971281
    Total Energy =                       -313.5389445297129782
  @DF-RHF Final Energy:  -313.53894463346893
    Total Energy =                       -313.5389446334689865
  @DF-RHF Final Energy:  -313.53894446560895
    Total Energy =                       -313.5389444656086653
  @DF-RHF Final Energy:  -313.53894459604652
    Total Energy =                       -313.5389445960466901
  @DF-RHF Final Energy:  -313.53894445799938
    Total Energy =                       -313.5389444579996052
  @DF-RHF Final Energy:  -313.53894467229685
    Total Energy =                       -313.5389446722964522
  @DF-RHF Final Energy:  -313.53894477326855
    Total Energy =                       -313.5389447732687245
  @DF-RHF Final Energy:  -313.53894443998291
    Total Energy =                       -313.5389444399828562
	 Singles Energy            =      -0.0000000000000004 [Eh]
	 Same-Spin Energy          =      -0.3162891864073177 [Eh]
	 Opposite-Spin Energy      =      -1.1255557317679730 [Eh]
	 Correlation Energy        =      -1.4418449181752910 [Eh]
	 Total Energy              =    -314.9807893581581766 [Eh]
	 SCS Total Energy          =    -314.9950410469069197 [Eh]
  Charge       = 0
  Multiplicity = 1
  Basis Set: AUG-CC-PVTZ
  Basis Set:

    Orbital Energies (a.u.)
    -----------------------

    Doubly Occupied:

       1A    -11.212430     2A    -11.211693     3A    -11.210889
       4A    -11.210587     5A    -11.209945     6A    -11.209258
       7A    -11.207211     8A    -11.206913     9A     -1.094083
      10A     -1.059518    11A     -1.008888    12A     -0.949688
      13A     -0.877858    14A     -0.830476    15A     -0.788209
      16A     -0.763195    17A     -0.642208    18A     -0.634765
      19A     -0.602485    20A     -0.595420    21A     -0.575823
      22A     -0.562466    23A     -0.549221    24A     -0.529793
      25A     -0.510492    26A     -0.502757    27A     -0.489172
      28A     -0.473697    29A     -0.467495    30A     -0.462822
      31A     -0.443605    32A     -0.436942    33A     -0.436505

  @DF-RHF Final Energy:  -313.53894442181030

   => Energetics <=

    Nuclear Repulsion Energy =            394.5687182382957303
    One-Electron Energy =               -1204.2823076118231711
    Two-Electron Energy =                 496.1746449517173687
    DFT Exchange-Correlation Energy =       0.0000000000000000
    Empirical Dispersion Energy =           0.0000000000000000
    PCM Polarization Energy =               0.0000000000000000
    EFP Energy =                            0.0000000000000000
    Total Energy =                       -313.5389444218100152
  Basis Set:
    Molecular point group: c1
  Basis Set: AUG-CC-PVTZ
  Basis Set:
  Basis Set:
	 Reference Energy          =    -313.5389444218102994 [Eh]
	 Singles Energy            =      -0.0000000000000000 [Eh]
	 Same-Spin Energy          =      -0.3162891904343578 [Eh]
	 Opposite-Spin Energy      =      -1.1255557451483991 [Eh]
	 Correlation Energy        =      -1.4418449355827567 [Eh]
	 Total Energy              =    -314.9807893573930642 [Eh]

	 ================> DF-SCS-MP2 Energies <==================
	-----------------------------------------------------------
	 SCS Same-Spin Scale       =       0.3333333333333333 [-]
	 SCS Opposite-Spin Scale   =       1.2000000000000000 [-]
	 SCS Same-Spin Energy      =      -0.1054297301447859 [Eh]
	 SCS Opposite-Spin Energy  =      -1.3506668941780788 [Eh]
	 SCS Correlation Energy    =      -1.4560966243228648 [Eh]
	 SCS Total Energy          =    -314.9950410461331671 [Eh]
	-----------------------------------------------------------

  -Total Gradient:
     Atom            X                  Y                   Z
    ------   -----------------  -----------------  -----------------
       1        0.000000005139     0.000000077090    -0.000000045294
       2       -0.000000026474    -0.000000145704     0.000000031493
       3       -0.000000078497     0.000000013366    -0.000000100729
       4       -0.000000048650     0.000000045544     0.000000080412
       5       -0.000000208219     0.000000226001     0.000000112293
       6       -0.000000230474    -0.000000368354    -0.000000138223
       7        0.000000177588    -0.000000132092     0.000000454095
       8        0.000000374428     0.000000079077    -0.000000300613
       9       -0.000000152877     0.000000083426     0.000000001658
      10        0.000000117717    -0.000000164570    -0.000000241782
      11        0.000000150587    -0.000000054802     0.000000273724
      12       -0.000000109234    -0.000000417844     0.000000215436
      13        0.000000440488     0.000000474427     0.000000150769
      14       -0.000000176158     0.000000149154    -0.000000526741
      15        0.000000185695    -0.000000034389     0.000000124050
      16       -0.000000115175     0.000000059829     0.000000110175
      17       -0.000000024806     0.000000047888    -0.000000082027
      18        0.000000139933     0.000000028638     0.000000248567
      19        0.000000100336     0.000000166863    -0.000000023202
      20        0.000000117560    -0.000000132870    -0.000000251524
      21       -0.000000372401    -0.000000318516    -0.000000576280
      22        0.000000286684     0.000000324738     0.000000049958
      23       -0.000000300619    -0.000000021289     0.000000368240
      24       -0.000000029849     0.000000453472    -0.000000298003
      25        0.000000185207     0.000000019772     0.000000493972
      26       -0.000000407930    -0.000000458854    -0.000000130425

  **** Optimization is complete! (in 45 steps) ****
    Final optimized geometry and variables:
    Molecular point group: c1

    Geometry (in Angstrom), charge = 0, multiplicity = 1:

    C           -3.408182243200    -1.155771584511     0.006616320722
    H           -3.481775044528    -2.211994949823     0.264388108129
    H           -3.908085452210    -1.007540892528    -0.951387590965
    H           -3.957729831341    -0.587872862699     0.758546291691
    C            3.376305317879    -1.219323870871    -0.190658088616
    H            2.794601152429    -2.077690646168    -0.529198412882
    H            3.737339105384    -1.439789196567     0.814770951805
    H            4.242699578468    -1.122451329779    -0.844499954154
    C           -1.957816298877    -0.692678865174    -0.063325208794
    H           -1.416324508867    -1.282204706280    -0.808887799270
    H           -1.470843244352    -0.879710604628     0.896204164171
    C            2.524221038482     0.043897307455    -0.193670844219
    H            3.128951507286     0.899953314225     0.118054780612
    H            2.190206153320     0.256367408619    -1.211973953051
    C           -1.850496934149     0.786013804111    -0.416984017742
    H           -2.359718817678     1.371082270866     0.356166162188
    H           -2.397533247081     0.963370931623    -1.348049742070
    C           -0.421710280039     1.306110451272    -0.569156836526
    H           -0.470441739243     2.354975218864    -0.868916972777
    H            0.065876132205     0.777424542214    -1.393526853801
    C            0.424142072921     1.169015918851     0.706198578598
    H            1.064228546533     2.047598124780     0.823517138019
    H           -0.244286555243     1.163335571365     1.572305143545
    C            1.318906812567    -0.071586587137     0.733057310336
    H            1.679579006486    -0.241310636061     1.751901048914
    H            0.739323713462    -0.956224141510     0.456786174681

*** Psi4 exiting successfully. Buy a developer a beer!
