                              Psi4 1.0.0 Driver

  ==> Input File <==

--------------------------------------------------------------------------
memory 30 Gb

molecule molecule_27_psi {
0 1
symmetry c1
    C            3.129180038101    -1.524866587104    -0.164968588996
    H            2.996180253040    -2.597578572293    -0.045022519233
    H            3.949543360439    -1.212560562732     0.478767020333
    H            3.425888626702    -1.336205678208    -1.195321732457
    C           -3.483496710222    -1.113443924663     0.220304791152
    H           -4.320633236171    -1.423403260565    -0.401001016467
    H           -3.885078679097    -0.621873126230     1.104576714322
    H           -2.958678995903    -2.008882330324     0.548488010118
    C            1.861515132111    -0.762058507225     0.173400119721
    H            1.565634005445    -0.972960989395     1.202780618139
    H            1.048636773253    -1.111894244883    -0.463234665306
    C           -2.543252852390    -0.186120553691    -0.526842505932
    H           -2.171046953784    -0.683019544428    -1.424515837007
    H           -3.086803962527     0.697906334324    -0.865021415212
    C            2.037373862656     0.735207772002    -0.000035987416
    H            2.289578558403     0.939447957382    -1.043825926925
    H            2.895206157541     1.058063980029     0.593959472867
    C            0.823081210364     1.568414341017     0.381323841615
    H            1.068958661498     2.619883919845     0.232654055022
    H            0.623965688651     1.445566445483     1.448593680947
    C           -0.439290968441     1.215482965091    -0.405463440437
    H           -1.003014478384     2.121936000686    -0.630178430002
    H           -0.155559442471     0.787162003374    -1.370535793724
    C           -1.363721715283     0.251453667903     0.318723360251
    H           -0.807138905509    -0.628255064109     0.643494140862
    H           -1.730300646046     0.734986619241     1.227713002484
}

set globals {
  reference rhf
  g_convergence gau_verytight
  basis aug-cc-pvtz
  freeze_core true
  scf_type df
  mp_type df
}
optimize('mp2')
--------------------------------------------------------------------------

    Molecular point group: c1
  Charge       = 0
  Multiplicity = 1
  Basis Set: AUG-CC-PVTZ
  Basis Set:
  @DF-RHF Final Energy:  -313.54055171646735
    Total Energy =                       -313.5405517164671210
  Basis Set:
    Molecular point group: c1
  Basis Set: AUG-CC-PVTZ
  Basis Set:
  Basis Set:
	 Reference Energy          =    -313.5405517164673483 [Eh]
	 Singles Energy            =      -0.0000000000000000 [Eh]
	 Same-Spin Energy          =      -0.3162450189030357 [Eh]
	 Opposite-Spin Energy      =      -1.1245666158694876 [Eh]
	 Correlation Energy        =      -1.4408116347725233 [Eh]
	 Total Energy              =    -314.9813633512398496 [Eh]
	 SCS Total Energy          =    -314.9954466618117408 [Eh]
  Basis Set: AUG-CC-PVTZ
  Basis Set:
  @DF-RHF Final Energy:  -313.54073799739734
    Total Energy =                       -313.5407379973972866
  Basis Set:
  Basis Set: AUG-CC-PVTZ
  Basis Set:
  @DF-RHF Final Energy:  -313.54085612413348
    Total Energy =                       -313.5408561241330290
  @DF-RHF Final Energy:  -313.54091107568587
    Total Energy =                       -313.5409110756860400
  @DF-RHF Final Energy:  -313.54091641488674
    Total Energy =                       -313.5409164148866807
  @DF-RHF Final Energy:  -313.54091904093013
    Total Energy =                       -313.5409190409302482
  @DF-RHF Final Energy:  -313.54091929776382
    Total Energy =                       -313.5409192977635939
  @DF-RHF Final Energy:  -313.54091926243916
    Total Energy =                       -313.5409192624391608
  @DF-RHF Final Energy:  -313.54091929113378
    Total Energy =                       -313.5409192911338323
  @DF-RHF Final Energy:  -313.54091942481693
    Total Energy =                       -313.5409194248171616
  @DF-RHF Final Energy:  -313.54091928807492
    Total Energy =                       -313.5409192880746900
  @DF-RHF Final Energy:  -313.54091932786963
    Total Energy =                       -313.5409193278695170
  @DF-RHF Final Energy:  -313.54091941684726
    Total Energy =                       -313.5409194168472027
  @DF-RHF Final Energy:  -313.54091907662433
    Total Energy =                       -313.5409190766246184
  @DF-RHF Final Energy:  -313.54091918697014
    Total Energy =                       -313.5409191869700862
  @DF-RHF Final Energy:  -313.54091948179155
    Total Energy =                       -313.5409194817914340
  @DF-RHF Final Energy:  -313.54091909274024
    Total Energy =                       -313.5409190927402392
  @DF-RHF Final Energy:  -313.54091913337663
    Total Energy =                       -313.5409191333766898
  @DF-RHF Final Energy:  -313.54091935817945
    Total Energy =                       -313.5409193581795080
  @DF-RHF Final Energy:  -313.54091915438647
    Total Energy =                       -313.5409191543861880
  @DF-RHF Final Energy:  -313.54091935426510
    Total Energy =                       -313.5409193542654975
  @DF-RHF Final Energy:  -313.54091930160888
    Total Energy =                       -313.5409193016088238
  @DF-RHF Final Energy:  -313.54091898905256
    Total Energy =                       -313.5409189890526704
  @DF-RHF Final Energy:  -313.54091916085213
    Total Energy =                       -313.5409191608520132
  @DF-RHF Final Energy:  -313.54091941559921
    Total Energy =                       -313.5409194155994328
  @DF-RHF Final Energy:  -313.54091924550943
    Total Energy =                       -313.5409192455096559
  @DF-RHF Final Energy:  -313.54091924362342
    Total Energy =                       -313.5409192436233070
  @DF-RHF Final Energy:  -313.54091934417045
    Total Energy =                       -313.5409193441706748
  @DF-RHF Final Energy:  -313.54091916199053
    Total Energy =                       -313.5409191619903595
  @DF-RHF Final Energy:  -313.54091931634247
    Total Energy =                       -313.5409193163425243
  @DF-RHF Final Energy:  -313.54091936616243
    Total Energy =                       -313.5409193661621430
  @DF-RHF Final Energy:  -313.54091930592710
    Total Energy =                       -313.5409193059272752
	 Singles Energy            =      -0.0000000000000001 [Eh]
	 Same-Spin Energy          =      -0.3158140015721072 [Eh]
	 Opposite-Spin Energy      =      -1.1248965659784833 [Eh]
	 Correlation Energy        =      -1.4407105675505905 [Eh]
	 Total Energy              =    -314.9816298734776865 [Eh]
	 SCS Total Energy          =    -314.9960665189586280 [Eh]
  Charge       = 0
  Multiplicity = 1
  Basis Set: AUG-CC-PVTZ
  Basis Set:

    Orbital Energies (a.u.)
    -----------------------

    Doubly Occupied:

       1A    -11.212570     2A    -11.212113     3A    -11.211072
       4A    -11.210555     5A    -11.210054     6A    -11.208709
       7A    -11.207324     8A    -11.207014     9A     -1.093448
      10A     -1.060169    11A     -1.010705    12A     -0.949552
      13A     -0.879444    14A     -0.823825    15A     -0.786227
      16A     -0.769826    17A     -0.650788    18A     -0.629471
      19A     -0.603980    20A     -0.591860    21A     -0.574012
      22A     -0.561372    23A     -0.547896    24A     -0.526628
      25A     -0.519274    26A     -0.497554    27A     -0.485382
      28A     -0.478564    29A     -0.464334    30A     -0.462558
      31A     -0.453787    32A     -0.438092    33A     -0.431227

  @DF-RHF Final Energy:  -313.54091927349958

   => Energetics <=

    Nuclear Repulsion Energy =            391.8192960886800051
    One-Electron Energy =               -1198.7816594124556104
    Two-Electron Energy =                 493.4214440502761363
    DFT Exchange-Correlation Energy =       0.0000000000000000
    Empirical Dispersion Energy =           0.0000000000000000
    PCM Polarization Energy =               0.0000000000000000
    EFP Energy =                            0.0000000000000000
    Total Energy =                       -313.5409192734995258
  Basis Set:
    Molecular point group: c1
  Basis Set: AUG-CC-PVTZ
  Basis Set:
  Basis Set:
	 Reference Energy          =    -313.5409192734995827 [Eh]
	 Singles Energy            =      -0.0000000000000002 [Eh]
	 Same-Spin Energy          =      -0.3158140109371004 [Eh]
	 Opposite-Spin Energy      =      -1.1248965841250691 [Eh]
	 Correlation Energy        =      -1.4407105950621697 [Eh]
	 Total Energy              =    -314.9816298685617539 [Eh]

	 ================> DF-SCS-MP2 Energies <==================
	-----------------------------------------------------------
	 SCS Same-Spin Scale       =       0.3333333333333333 [-]
	 SCS Opposite-Spin Scale   =       1.2000000000000000 [-]
	 SCS Same-Spin Energy      =      -0.1052713369790335 [Eh]
	 SCS Opposite-Spin Energy  =      -1.3498759009500829 [Eh]
	 SCS Correlation Energy    =      -1.4551472379291166 [Eh]
	 SCS Total Energy          =    -314.9960665114286940 [Eh]
	-----------------------------------------------------------

  -Total Gradient:
     Atom            X                  Y                   Z
    ------   -----------------  -----------------  -----------------
       1       -0.000000098843     0.000000033858     0.000000091184
       2       -0.000000002395    -0.000000044431     0.000000004713
       3        0.000000048330     0.000000007425     0.000000026073
       4        0.000000014168     0.000000015706    -0.000000055882
       5       -0.000000155901    -0.000000047477     0.000000016511
       6        0.000000160137     0.000000024964     0.000000117130
       7        0.000000094400    -0.000000073321    -0.000000213876
       8       -0.000000071918     0.000000165784    -0.000000066464
       9        0.000000023324    -0.000000020709    -0.000000064100
      10        0.000000004688     0.000000046639    -0.000000078235
      11       -0.000000014978     0.000000066655     0.000000063605
      12       -0.000000095261     0.000000096978    -0.000000235060
      13       -0.000000066935     0.000000064031     0.000000169008
      14        0.000000124469    -0.000000212273     0.000000139458
      15        0.000000012018    -0.000000049760    -0.000000030921
      16       -0.000000040412    -0.000000031853     0.000000066276
      17       -0.000000044514    -0.000000024245    -0.000000006723
      18        0.000000113987     0.000000095491     0.000000138586
      19       -0.000000018310    -0.000000039637     0.000000039325
      20        0.000000038847    -0.000000010992    -0.000000195673
      21        0.000000048690    -0.000000010542    -0.000000101190
      22        0.000000002722    -0.000000110979     0.000000071127
      23        0.000000001953     0.000000042245     0.000000012354
      24        0.000000011236    -0.000000123355     0.000000342277
      25       -0.000000170151     0.000000225416    -0.000000030215
      26        0.000000080650    -0.000000085623    -0.000000219289

  **** Optimization is complete! (in 33 steps) ****
    Final optimized geometry and variables:
    Molecular point group: c1

    Geometry (in Angstrom), charge = 0, multiplicity = 1:

    C            3.169868639209    -1.517357527848    -0.153213464318
    H            3.053235479989    -2.592128457560    -0.016334189156
    H            3.989833878508    -1.183978319226     0.484072356260
    H            3.462405717854    -1.340826588484    -1.189170107433
    C           -3.504960423291    -1.122476286426     0.235253999547
    H           -4.366026843010    -1.406053501344    -0.369438704557
    H           -3.875605524117    -0.660533537354     1.151136490077
    H           -2.976063234064    -2.034570318926     0.514652708442
    C            1.887002175432    -0.764564338102     0.179233370973
    H            1.598207321470    -0.963156267642     1.215245426978
    H            1.075282824158    -1.138193163706    -0.449013561035
    C           -2.579839145554    -0.170471111027    -0.512843182140
    H           -2.239289126021    -0.639001283117    -1.440312202532
    H           -3.130414782164     0.728030300323    -0.804717305764
    C            2.043582881236     0.738077377158    -0.021838877129
    H            2.282275772918     0.928371650809    -1.073541463686
    H            2.907577817696     1.079991241772     0.556245992550
    C            0.823147692766     1.572706244122     0.364423684115
    H            1.067881428753     2.624554128885     0.202110403841
    H            0.633456944043     1.464253943141     1.437056097332
    C           -0.452030266168     1.214517771104    -0.411379646278
    H           -1.027170446632     2.121074813192    -0.616707752825
    H           -0.177865616047     0.802020606247    -1.388457706108
    C           -1.366898245468     0.232798367739     0.315203175850
    H           -0.810184305764    -0.663672091127     0.598492710983
    H           -1.704165383220     0.692122710045     1.250131227680

*** Psi4 exiting successfully. Buy a developer a beer!
