                              Psi4 1.0.0 Driver

  ==> Input File <==

--------------------------------------------------------------------------
memory 60 Gb

molecule molecule_83_psi {
0 1
C            1.375540930148    -1.914064104250     0.275208962498
H            0.371572590874    -1.642945447947     0.602030131483
H            1.979230443915    -2.083501847707     1.168627596959
H            1.303641972213    -2.858577267906    -0.264093728264
C           -3.102965001617    -0.904741761023     0.037930050925
H           -3.787334293553    -1.135956365492     0.853821215500
H           -2.602216064215    -1.829565529546    -0.252439765030
H           -3.695836902458    -0.567732993063    -0.813368916785
C            1.998876978790    -0.827585277765    -0.593849016849
H            1.387643163543    -0.661875235553    -1.483400602974
H            2.969398852209    -1.174623145112    -0.956512566389
C           -2.083527790894     0.154174712054     0.440199255238
H           -2.598236991824     1.066300497546     0.755212616680
H           -1.521494155167    -0.197489236109     1.308352226623
C            2.206805232442     0.491551867916     0.148081325234
H            2.693089995373     1.203978320874    -0.524864039001
H            2.906633000107     0.317363761316     0.971408689260
C            0.945736328858     1.148569246991     0.713267604270
H            1.261495570931     2.042886743663     1.255498574936
H            0.487945118000     0.497777529311     1.461321951272
C           -0.091819371424     1.555123475794    -0.341603812689
H           -0.635523724662     2.435213473098     0.013952541208
H            0.435941525734     1.870344957358    -1.247233240302
C           -1.130230935169     0.489784019545    -0.701185827017
H           -1.722669824795     0.849643036483    -1.548017221849
H           -0.643243720651    -0.427022837804    -1.038923208907
}

set globals {
  reference rhf
  g_convergence gau_verytight
  basis aug-cc-pvtz
  freeze_core true
  scf_type df
  mp_type df
}
optimize('mp2')
--------------------------------------------------------------------------

    Molecular point group: c1
  Charge       = 0
  Multiplicity = 1
  Basis Set: AUG-CC-PVTZ
  Basis Set:
  @DF-RHF Final Energy:  -313.53607232559125
    Total Energy =                       -313.5360723255913626
  Basis Set:
    Molecular point group: c1
  Basis Set: AUG-CC-PVTZ
  Basis Set:
  Basis Set:
	 Reference Energy          =    -313.5360723255912490 [Eh]
	 Singles Energy            =      -0.0000000000000001 [Eh]
	 Same-Spin Energy          =      -0.3177030067730595 [Eh]
	 Opposite-Spin Energy      =      -1.1272837385349423 [Eh]
	 Correlation Energy        =      -1.4449867453080019 [Eh]
	 Total Energy              =    -314.9810590708992777 [Eh]
	 SCS Total Energy          =    -314.9947138140908578 [Eh]
  Basis Set: AUG-CC-PVTZ
  Basis Set:
  @DF-RHF Final Energy:  -313.53607209166177
    Total Energy =                       -313.5360720916617083
  Basis Set:
  Basis Set: AUG-CC-PVTZ
  Basis Set:
  @DF-RHF Final Energy:  -313.53607248332281
    Total Energy =                       -313.5360724833232098
  @DF-RHF Final Energy:  -313.53607268981420
    Total Energy =                       -313.5360726898139774
  @DF-RHF Final Energy:  -313.53607254850306
    Total Energy =                       -313.5360725485033413
  @DF-RHF Final Energy:  -313.53607366007827
    Total Energy =                       -313.5360736600783866
  @DF-RHF Final Energy:  -313.53607241988448
    Total Energy =                       -313.5360724198846469
  @DF-RHF Final Energy:  -313.53607240099444
    Total Energy =                       -313.5360724009943851
  @DF-RHF Final Energy:  -313.53607265596457
    Total Energy =                       -313.5360726559644604
  @DF-RHF Final Energy:  -313.53607461149699
    Total Energy =                       -313.5360746114969857
  @DF-RHF Final Energy:  -313.53607247007153
    Total Energy =                       -313.5360724700716446
  @DF-RHF Final Energy:  -313.53607240182305
    Total Energy =                       -313.5360724018229917
  @DF-RHF Final Energy:  -313.53607260820388
    Total Energy =                       -313.5360726082033693
  @DF-RHF Final Energy:  -313.53607238669503
    Total Energy =                       -313.5360723866950252
  @DF-RHF Final Energy:  -313.53607237841226
    Total Energy =                       -313.5360723784127686
  @DF-RHF Final Energy:  -313.53607195617320
    Total Energy =                       -313.5360719561732594
  @DF-RHF Final Energy:  -313.53607242230430
    Total Energy =                       -313.5360724223042439
  @DF-RHF Final Energy:  -313.53607235577181
    Total Energy =                       -313.5360723557720348
  @DF-RHF Final Energy:  -313.53607238749572
    Total Energy =                       -313.5360723874954374
	 Singles Energy            =      -0.0000000000000001 [Eh]
	 Same-Spin Energy          =      -0.3177029887135172 [Eh]
	 Opposite-Spin Energy      =      -1.1272836924808292 [Eh]
	 Correlation Energy        =      -1.4449866811943464 [Eh]
	 Total Energy              =    -314.9810590686900582 [Eh]
	 SCS Total Energy          =    -314.9947138147105647 [Eh]
  Charge       = 0
  Multiplicity = 1
  Basis Set: AUG-CC-PVTZ
  Basis Set:

    Orbital Energies (a.u.)
    -----------------------

    Doubly Occupied:

       1A    -11.212463     2A    -11.212311     3A    -11.211230
       4A    -11.210883     5A    -11.209404     6A    -11.209257
       7A    -11.207385     8A    -11.207239     9A     -1.094306
      10A     -1.058347    11A     -1.007456    12A     -0.950200
      13A     -0.884162    14A     -0.836136    15A     -0.787522
      16A     -0.750340    17A     -0.650845    18A     -0.631580
      19A     -0.612568    20A     -0.579753    21A     -0.579115
      22A     -0.569408    23A     -0.542859    24A     -0.531532
      25A     -0.519492    26A     -0.505104    27A     -0.485731
      28A     -0.474354    29A     -0.467952    30A     -0.461126
      31A     -0.440701    32A     -0.437820    33A     -0.434940

  @DF-RHF Final Energy:  -313.53607235285938

   => Energetics <=

    Nuclear Repulsion Energy =            406.7981298982425642
    One-Electron Energy =               -1228.7213653830033309
    Two-Electron Energy =                 508.3871631319015023
    DFT Exchange-Correlation Energy =       0.0000000000000000
    Empirical Dispersion Energy =           0.0000000000000000
    PCM Polarization Energy =               0.0000000000000000
    EFP Energy =                            0.0000000000000000
    Total Energy =                       -313.5360723528592644
  Basis Set:
    Molecular point group: c1
  Basis Set: AUG-CC-PVTZ
  Basis Set:
  Basis Set:
	 Reference Energy          =    -313.5360723528593780 [Eh]
	 Singles Energy            =      -0.0000000000000002 [Eh]
	 Same-Spin Energy          =      -0.3177030015290341 [Eh]
	 Opposite-Spin Energy      =      -1.1272837189874785 [Eh]
	 Correlation Energy        =      -1.4449867205165128 [Eh]
	 Total Energy              =    -314.9810590733758886 [Eh]

	 ================> DF-SCS-MP2 Energies <==================
	-----------------------------------------------------------
	 SCS Same-Spin Scale       =       0.3333333333333333 [-]
	 SCS Opposite-Spin Scale   =       1.2000000000000000 [-]
	 SCS Same-Spin Energy      =      -0.1059010005096780 [Eh]
	 SCS Opposite-Spin Energy  =      -1.3527404627849742 [Eh]
	 SCS Correlation Energy    =      -1.4586414632946525 [Eh]
	 SCS Total Energy          =    -314.9947138161540465 [Eh]
	-----------------------------------------------------------

  -Total Gradient:
     Atom            X                  Y                   Z
    ------   -----------------  -----------------  -----------------
       1        0.000000616660     0.000000393693    -0.000000448943
       2       -0.000000626243     0.000000084851     0.000000272203
       3        0.000000064348    -0.000000057584     0.000000168448
       4        0.000000037547    -0.000000063178    -0.000000037445
       5        0.000000071931     0.000000190171    -0.000000257593
       6       -0.000000112464    -0.000000042419     0.000000114746
       7        0.000000036739    -0.000000073245    -0.000000084235
       8        0.000000077821    -0.000000074665     0.000000054323
       9        0.000000154933    -0.000000352340     0.000000562476
      10       -0.000000532614     0.000000022319    -0.000000642267
      11        0.000000149563     0.000000083162     0.000000038337
      12        0.000000819890    -0.000000093021     0.000000086947
      13       -0.000000277268     0.000000336480    -0.000000014937
      14       -0.000000091031     0.000000037313    -0.000000207960
      15       -0.000000675358    -0.000000316631    -0.000000162228
      16        0.000000470887     0.000000591007    -0.000000708061
      17        0.000000422250    -0.000000140860     0.000000713405
      18        0.000000613763    -0.000000261163     0.000000053407
      19        0.000000115001     0.000000526570     0.000000118382
      20       -0.000000285657    -0.000000403190     0.000000405189
      21       -0.000000655759    -0.000000504011     0.000000535545
      22       -0.000000559412     0.000000771339     0.000000354382
      23        0.000000586703     0.000000095039    -0.000000768117
      24       -0.000000226172    -0.000000322893     0.000000326476
      25       -0.000000137252     0.000000071455    -0.000000192197
      26       -0.000000058806    -0.000000498198    -0.000000280284

  **** Optimization is complete! (in 20 steps) ****
    Final optimized geometry and variables:
    Molecular point group: c1

    Geometry (in Angstrom), charge = 0, multiplicity = 1:

    C            1.375542282436    -1.914064591418     0.275205680520
    H            0.371573971059    -1.642945451011     0.602028140435
    H            1.979231352720    -2.083503794731     1.168623950673
    H            1.303642413156    -2.858576911261    -0.264097611250
    C           -3.102964625065    -0.904741442569     0.037931149428
    H           -3.787337297498    -1.135952166654     0.853820356614
    H           -2.602214472486    -1.829566255041    -0.252432329397
    H           -3.695832449583    -0.567736975287    -0.813371499895
    C            1.998878293593    -0.827584445670    -0.593850589297
    H            1.387644555860    -0.661874733877    -1.483402547098
    H            2.969400743217    -1.174619738373    -0.956513737195
    C           -2.083529181668     0.154177103478     0.440199011316
    H           -2.598239895346     1.066304017839     0.755206613583
    H           -1.521497339584    -0.197482285616     1.308353685512
    C            2.206804812086     0.491551672740     0.148081853925
    H            2.693090225672     1.203978715227    -0.524863123269
    H            2.906631732390     0.317362607203     0.971409956873
    C            0.945736535530     1.148568394173     0.713269577396
    H            1.261495701446     2.042887050216     1.255499062167
    H            0.487946141922     0.497777289528     1.461324229323
    C           -0.091819940758     1.555122360369    -0.341602368433
    H           -0.635524024774     2.435213804586     0.013952766815
    H            0.435942199411     1.870340925321    -1.247232691973
    C           -1.130231867539     0.489782798725    -0.701185215677
    H           -1.722669502181     0.849641372347    -1.548017771383
    H           -0.643246755421    -0.427025134499    -1.038921835002

*** Psi4 exiting successfully. Buy a developer a beer!
