                              Psi4 1.0.0 Driver

  ==> Input File <==

--------------------------------------------------------------------------
memory 60 Gb

molecule molecule_60_psi {
0 1
C            3.094450501163     0.073846059852     0.562397877193
H            3.737595859423     0.640190442066     1.235507991744
H            3.702789760097    -0.263477521783    -0.278749294266
H            2.751231448808    -0.809382077170     1.100572896490
C           -2.026171095696     1.569763500245     0.355407095301
H           -2.375287296040     2.455545477845    -0.175202307555
H           -0.961357120080     1.698517356530     0.547444576526
H           -2.535189742192     1.534901623660     1.320256252015
C            1.924322318247     0.922978126947     0.078155771258
H            2.304134129509     1.859288355788    -0.337039814607
H            1.303372681390     1.203153625946     0.932149148373
C           -2.304980216326     0.301465164081    -0.442913234218
H           -3.371661773268     0.252673602222    -0.674427974336
H           -1.789542002704     0.343546523960    -1.404955640314
C            1.074334432055     0.233752264646    -0.989899605480
H            1.695973265835     0.084159904608    -1.878224464314
H            0.268065331605     0.905391152910    -1.289744268136
C            0.505280134179    -1.125569314983    -0.571544602288
H            1.342970414301    -1.797485653429    -0.374001321857
H           -0.029592872891    -1.561422401881    -1.421211215206
C           -0.429422908210    -1.110979358279     0.646257831736
H           -0.307912568806    -2.046948868050     1.196394565293
H           -0.133215944886    -0.321123207793     1.340189458067
C           -1.913501239207    -0.974857290096     0.298758633409
H           -2.203008880280    -1.838968689953    -0.306438322203
H           -2.498159761758    -1.033561129671     1.222137311614
}

set globals {
  reference rhf
  g_convergence gau_verytight
  basis aug-cc-pvtz
  freeze_core true
  scf_type df
  mp_type df
}
optimize('mp2')
--------------------------------------------------------------------------

    Molecular point group: c1
  Charge       = 0
  Multiplicity = 1
  Basis Set: AUG-CC-PVTZ
  Basis Set:
  @DF-RHF Final Energy:  -313.53399448179579
    Total Energy =                       -313.5339944817957303
  Basis Set:
    Molecular point group: c1
  Basis Set: AUG-CC-PVTZ
  Basis Set:
  Basis Set:
	 Reference Energy          =    -313.5339944817957871 [Eh]
	 Singles Energy            =      -0.0000000000000000 [Eh]
	 Same-Spin Energy          =      -0.3182464266812064 [Eh]
	 Opposite-Spin Energy      =      -1.1280347821195438 [Eh]
	 Correlation Energy        =      -1.4462812088007502 [Eh]
	 Total Energy              =    -314.9802756905965566 [Eh]
	 SCS Total Energy          =    -314.9937183625663124 [Eh]
  Basis Set: AUG-CC-PVTZ
  Basis Set:
  @DF-RHF Final Energy:  -313.53399352429102
    Total Energy =                       -313.5339935242902243
  Basis Set:
  Basis Set: AUG-CC-PVTZ
  Basis Set:
  @DF-RHF Final Energy:  -313.53399402536263
    Total Energy =                       -313.5339940253626310
  @DF-RHF Final Energy:  -313.53399403185966
    Total Energy =                       -313.5339940318596632
  @DF-RHF Final Energy:  -313.53399409563900
    Total Energy =                       -313.5339940956397413
  @DF-RHF Final Energy:  -313.53399428900457
    Total Energy =                       -313.5339942890045677
  @DF-RHF Final Energy:  -313.53399428997733
    Total Energy =                       -313.5339942899770449
  @DF-RHF Final Energy:  -313.53399431988498
    Total Energy =                       -313.5339943198849255
  @DF-RHF Final Energy:  -313.53399441931293
    Total Energy =                       -313.5339944193136148
  @DF-RHF Final Energy:  -313.53399438112905
    Total Energy =                       -313.5339943811286503
  @DF-RHF Final Energy:  -313.53399440362818
    Total Energy =                       -313.5339944036285829
  @DF-RHF Final Energy:  -313.53399432429723
    Total Energy =                       -313.5339943242973959
  @DF-RHF Final Energy:  -313.53399430647528
    Total Energy =                       -313.5339943064754493
  @DF-RHF Final Energy:  -313.53399426493212
    Total Energy =                       -313.5339942649315503
  @DF-RHF Final Energy:  -313.53399431015737
    Total Energy =                       -313.5339943101576523
  @DF-RHF Final Energy:  -313.53399435572015
    Total Energy =                       -313.5339943557203810
  @DF-RHF Final Energy:  -313.53399440168079
    Total Energy =                       -313.5339944016806157
  @DF-RHF Final Energy:  -313.53399425316070
    Total Energy =                       -313.5339942531609267
  @DF-RHF Final Energy:  -313.53399437617628
    Total Energy =                       -313.5339943761769632
  @DF-RHF Final Energy:  -313.53399434413171
    Total Energy =                       -313.5339943441311448
  @DF-RHF Final Energy:  -313.53399423698352
    Total Energy =                       -313.5339942369829487
  @DF-RHF Final Energy:  -313.53399439692839
    Total Energy =                       -313.5339943969279375
  @DF-RHF Final Energy:  -313.53399439644591
    Total Energy =                       -313.5339943964456779
  @DF-RHF Final Energy:  -313.53399437332706
    Total Energy =                       -313.5339943733270047
  @DF-RHF Final Energy:  -313.53399441448602
    Total Energy =                       -313.5339944144846527
  @DF-RHF Final Energy:  -313.53399446179822
    Total Energy =                       -313.5339944617974197
  @DF-RHF Final Energy:  -313.53399442057105
    Total Energy =                       -313.5339944205702523
  @DF-RHF Final Energy:  -313.53399441695331
    Total Energy =                       -313.5339944169526234
  @DF-RHF Final Energy:  -313.53399443616325
    Total Energy =                       -313.5339944361637095
  @DF-RHF Final Energy:  -313.53399446806293
    Total Energy =                       -313.5339944680630424
	 Singles Energy            =      -0.0000000000000003 [Eh]
	 Same-Spin Energy          =      -0.3182464021464418 [Eh]
	 Opposite-Spin Energy      =      -1.1280348194509475 [Eh]
	 Correlation Energy        =      -1.4462812215973897 [Eh]
	 Total Energy              =    -314.9802756896603455 [Eh]
	 SCS Total Energy          =    -314.9937183854528939 [Eh]
  Charge       = 0
  Multiplicity = 1
  Basis Set: AUG-CC-PVTZ
  Basis Set:

    Orbital Energies (a.u.)
    -----------------------

    Doubly Occupied:

       1A    -11.212873     2A    -11.212134     3A    -11.210783
       4A    -11.210526     5A    -11.209922     6A    -11.209178
       7A    -11.207075     8A    -11.206550     9A     -1.094682
      10A     -1.057994    11A     -1.003828    12A     -0.948983
      13A     -0.888899    14A     -0.844156    15A     -0.779847
      16A     -0.743034    17A     -0.650005    18A     -0.640257
      19A     -0.607247    20A     -0.597788    21A     -0.569909
      22A     -0.554306    23A     -0.548009    24A     -0.538682
      25A     -0.513745    26A     -0.507911    27A     -0.487318
      28A     -0.477354    29A     -0.462753    30A     -0.460511
      31A     -0.441588    32A     -0.436150    33A     -0.433960

  @DF-RHF Final Energy:  -313.53399436185299

   => Energetics <=

    Nuclear Repulsion Energy =            409.2963934784147000
    One-Electron Energy =               -1233.7248629393634474
    Two-Electron Energy =                 510.8944750990959278
    DFT Exchange-Correlation Energy =       0.0000000000000000
    Empirical Dispersion Energy =           0.0000000000000000
    PCM Polarization Energy =               0.0000000000000000
    EFP Energy =                            0.0000000000000000
    Total Energy =                       -313.5339943618527627
  Basis Set:
    Molecular point group: c1
  Basis Set: AUG-CC-PVTZ
  Basis Set:
  Basis Set:
	 Reference Energy          =    -313.5339943618529901 [Eh]
	 Singles Energy            =      -0.0000000000000004 [Eh]
	 Same-Spin Energy          =      -0.3182464327630936 [Eh]
	 Opposite-Spin Energy      =      -1.1280348956040649 [Eh]
	 Correlation Energy        =      -1.4462813283671589 [Eh]
	 Total Energy              =    -314.9802756902201395 [Eh]

	 ================> DF-SCS-MP2 Energies <==================
	-----------------------------------------------------------
	 SCS Same-Spin Scale       =       0.3333333333333333 [-]
	 SCS Opposite-Spin Scale   =       1.2000000000000000 [-]
	 SCS Same-Spin Energy      =      -0.1060821442543645 [Eh]
	 SCS Opposite-Spin Energy  =      -1.3536418747248777 [Eh]
	 SCS Correlation Energy    =      -1.4597240189792426 [Eh]
	 SCS Total Energy          =    -314.9937183808322061 [Eh]
	-----------------------------------------------------------

  -Total Gradient:
     Atom            X                  Y                   Z
    ------   -----------------  -----------------  -----------------
       1        0.000000097262    -0.000000292108    -0.000000005529
       2       -0.000000096361    -0.000000150767    -0.000000112740
       3       -0.000000220604     0.000000139080     0.000000279071
       4        0.000000110366     0.000000252979    -0.000000196503
       5       -0.000000122177    -0.000000242007     0.000000023665
       6       -0.000000090826     0.000000149616    -0.000000127670
       7        0.000000216408     0.000000059130     0.000000019988
       8       -0.000000075685     0.000000010024     0.000000180451
       9       -0.000000651507     0.000000295068     0.000000274045
      10       -0.000000246792    -0.000000385316     0.000000229224
      11        0.000000392084    -0.000000025381    -0.000000329662
      12        0.000000046063     0.000000215322     0.000000264945
      13       -0.000000182777     0.000000039477     0.000000080247
      14        0.000000221363     0.000000021015    -0.000000343402
      15       -0.000000553614    -0.000000094418    -0.000000573521
      16       -0.000000373844     0.000000151793     0.000000371270
      17        0.000000726010    -0.000000333229     0.000000118648
      18        0.000001183935     0.000000147181    -0.000000227918
      19       -0.000000104199     0.000000095789     0.000000018467
      20       -0.000000058304    -0.000000009050     0.000000034646
      21        0.000000015624     0.000000017274    -0.000000474482
      22       -0.000000131055    -0.000000286532     0.000000087217
      23        0.000000222157     0.000000442466     0.000000348153
      24       -0.000000019815    -0.000000018078    -0.000000173810
      25       -0.000000054469    -0.000000201648    -0.000000103023
      26       -0.000000249242     0.000000002320     0.000000338223

  **** Optimization is complete! (in 31 steps) ****
    Final optimized geometry and variables:
    Molecular point group: c1

    Geometry (in Angstrom), charge = 0, multiplicity = 1:

    C            3.094448947783     0.073857581347     0.562400846793
    H            3.737592476573     0.640211486818     1.235505514155
    H            3.702789485665    -0.263471710251    -0.278743574758
    H            2.751233156835    -0.809366934010     1.100584550581
    C           -2.026157715147     1.569763792673     0.355398442097
    H           -2.375272819330     2.455546009067    -0.175212172599
    H           -0.961340748809     1.698511438785     0.547426213718
    H           -2.535168505584     1.534909184008     1.320252352474
    C            1.924317901998     0.922981787115     0.078150972353
    H            2.304128558484     1.859288504723    -0.337054810584
    H            1.303366750529     1.203165202788     0.932141339593
    C           -2.304983169391     0.301464689662    -0.442914787923
    H           -3.371668014793     0.252680332794    -0.674416925064
    H           -1.789555839018     0.343539548278    -1.404964016971
    C            1.074333663056     0.233743757858    -0.989899392050
    H            1.695976038207     0.084145542477    -1.878221009425
    H            0.268062959422     0.905377973062    -1.289752394926
    C            0.505284236893    -1.125576582154    -0.571535040543
    H            1.342977593524    -1.797486806807    -0.373980368987
    H           -0.029583175313    -1.561441201938    -1.421200287648
    C           -0.429427458412    -1.110978234407     0.646262372815
    H           -0.307920980004    -2.046945939444     1.196404220415
    H           -0.133224603029    -0.321117710251     1.340193350284
    C           -1.913505356112    -0.974858656174     0.298756713963
    H           -2.203008881633    -1.838970751752    -0.306442167944
    H           -2.498168098763    -1.033563549334     1.222133471474

*** Psi4 exiting successfully. Buy a developer a beer!
