                              Psi4 1.0.0 Driver

  ==> Input File <==

--------------------------------------------------------------------------
memory 60 Gb

molecule molecule_49_psi {
0 1
C           -1.580626269528     1.875167976538    -0.153122527384
H           -2.040785857989     2.661807029505    -0.751698433282
H           -0.619203250047     1.634405698843    -0.603607266406
H           -1.387172217083     2.283504616062     0.840087495293
C            3.430625704570     0.673443243928     0.361858210385
H            3.794883554014    -0.083720361660     1.057319859925
H            3.027792948399     1.498421666548     0.950850252953
H            4.284098015366     1.049348924012    -0.201888357388
C           -2.494496986073     0.655529714507    -0.055472541211
H           -2.708104483612     0.269882412752    -1.056818878091
H           -3.452428461893     0.983842931270     0.352996181620
C            2.360777900932     0.093676965225    -0.554957423470
H            2.025023934988     0.859175938965    -1.260424331004
H            2.785194798734    -0.714923242199    -1.156101083804
C           -1.942708778421    -0.481630911627     0.815159857178
H           -2.775148425916    -0.994597784262     1.302107731966
H           -1.337688066588    -0.058898711671     1.621991088646
C           -1.142659484652    -1.537419746076     0.048730564782
H           -1.814518789552    -2.017381017675    -0.668923645431
H           -0.828515674468    -2.318755413832     0.747534709674
C            0.087306499452    -1.022787992330    -0.695512671289
H            0.528108910809    -1.849816613946    -1.259962112328
H           -0.212678731524    -0.279286184449    -1.439324174363
C            1.156520854323    -0.432779628847     0.215419659330
H            0.737185538977     0.380835671677     0.813070210296
H            1.485412278944    -1.198713739768     0.925885736788
}

set globals {
  reference rhf
  g_convergence gau_verytight
  basis aug-cc-pvtz
  freeze_core true
  scf_type df
  mp_type df
}
optimize('mp2')
--------------------------------------------------------------------------

    Molecular point group: c1
  Charge       = 0
  Multiplicity = 1
  Basis Set: AUG-CC-PVTZ
  Basis Set:
  @DF-RHF Final Energy:  -313.53831053399568
    Total Energy =                       -313.5383105339955137
  Basis Set:
    Molecular point group: c1
  Basis Set: AUG-CC-PVTZ
  Basis Set:
  Basis Set:
	 Reference Energy          =    -313.5383105339956842 [Eh]
	 Singles Energy            =      -0.0000000000000004 [Eh]
	 Same-Spin Energy          =      -0.3168897264587633 [Eh]
	 Opposite-Spin Energy      =      -1.1262848970450503 [Eh]
	 Correlation Energy        =      -1.4431746235038141 [Eh]
	 Total Energy              =    -314.9814851574994918 [Eh]
	 SCS Total Energy          =    -314.9954823192693425 [Eh]
  Basis Set: AUG-CC-PVTZ
  Basis Set:
  @DF-RHF Final Energy:  -313.53831022973935
    Total Energy =                       -313.5383102297394657
  Basis Set:
  Basis Set: AUG-CC-PVTZ
  Basis Set:
  @DF-RHF Final Energy:  -313.53831015589452
    Total Energy =                       -313.5383101558945214
  @DF-RHF Final Energy:  -313.53831035642952
    Total Energy =                       -313.5383103564295197
  @DF-RHF Final Energy:  -313.53831040898257
    Total Energy =                       -313.5383104089823405
  @DF-RHF Final Energy:  -313.53831032210127
    Total Energy =                       -313.5383103221012675
  @DF-RHF Final Energy:  -313.53831037566204
    Total Energy =                       -313.5383103756623768
  @DF-RHF Final Energy:  -313.53831048179120
    Total Energy =                       -313.5383104817915410
  @DF-RHF Final Energy:  -313.53831033542451
    Total Energy =                       -313.5383103354245122
  @DF-RHF Final Energy:  -313.53831046416587
    Total Energy =                       -313.5383104641658747
	 Singles Energy            =      -0.0000000000000002 [Eh]
	 Same-Spin Energy          =      -0.3168897329941111 [Eh]
	 Opposite-Spin Energy      =      -1.1262849645204391 [Eh]
	 Correlation Energy        =      -1.4431746975145505 [Eh]
	 Total Energy              =    -314.9814851616804390 [Eh]
	 SCS Total Energy          =    -314.9954823325884377 [Eh]
  Charge       = 0
  Multiplicity = 1
  Basis Set: AUG-CC-PVTZ
  Basis Set:

    Orbital Energies (a.u.)
    -----------------------

    Doubly Occupied:

       1A    -11.213374     2A    -11.212729     3A    -11.211138
       4A    -11.210080     5A    -11.209636     6A    -11.208831
       7A    -11.207133     8A    -11.206980     9A     -1.094456
      10A     -1.058120    11A     -1.008681    12A     -0.951021
      13A     -0.884847    14A     -0.821874    15A     -0.795832
      16A     -0.755472    17A     -0.655553    18A     -0.619774
      19A     -0.614473    20A     -0.592955    21A     -0.567197
      22A     -0.563316    23A     -0.547362    24A     -0.534764
      25A     -0.519402    26A     -0.495247    27A     -0.490669
      28A     -0.476491    29A     -0.467673    30A     -0.460314
      31A     -0.442303    32A     -0.439786    33A     -0.434160

  @DF-RHF Final Energy:  -313.53831039985829

   => Energetics <=

    Nuclear Repulsion Energy =            400.8888792847881746
    One-Electron Energy =               -1216.9110947855972427
    Two-Electron Energy =                 502.4839051009511195
    DFT Exchange-Correlation Energy =       0.0000000000000000
    Empirical Dispersion Energy =           0.0000000000000000
    PCM Polarization Energy =               0.0000000000000000
    EFP Energy =                            0.0000000000000000
    Total Energy =                       -313.5383103998580054
  Basis Set:
    Molecular point group: c1
  Basis Set: AUG-CC-PVTZ
  Basis Set:
  Basis Set:
	 Reference Energy          =    -313.5383103998582897 [Eh]
	 Singles Energy            =      -0.0000000000000002 [Eh]
	 Same-Spin Energy          =      -0.3168897402307427 [Eh]
	 Opposite-Spin Energy      =      -1.1262850197208265 [Eh]
	 Correlation Energy        =      -1.4431747599515694 [Eh]
	 Total Energy              =    -314.9814851598098357 [Eh]

	 ================> DF-SCS-MP2 Energies <==================
	-----------------------------------------------------------
	 SCS Same-Spin Scale       =       0.3333333333333333 [-]
	 SCS Opposite-Spin Scale   =       1.2000000000000000 [-]
	 SCS Same-Spin Energy      =      -0.1056299134102476 [Eh]
	 SCS Opposite-Spin Energy  =      -1.3515420236649918 [Eh]
	 SCS Correlation Energy    =      -1.4571719370752396 [Eh]
	 SCS Total Energy          =    -314.9954823369335486 [Eh]
	-----------------------------------------------------------

  -Total Gradient:
     Atom            X                  Y                   Z
    ------   -----------------  -----------------  -----------------
       1       -0.000000120920     0.000000077642    -0.000000057237
       2       -0.000000029343     0.000000032174    -0.000000021573
       3        0.000000048278    -0.000000024534    -0.000000029596
       4        0.000000005379     0.000000060633     0.000000060692
       5        0.000000080270     0.000000057493     0.000000025027
       6       -0.000000004260     0.000000015287    -0.000000029384
       7        0.000000003345    -0.000000019975    -0.000000010928
       8        0.000000000012     0.000000008206     0.000000015050
       9        0.000000266326    -0.000000063957    -0.000000010604
      10       -0.000000035388    -0.000000054082    -0.000000098072
      11       -0.000000141724     0.000000075497     0.000000077782
      12        0.000000058687    -0.000000014848    -0.000000239621
      13        0.000000009707    -0.000000096222     0.000000091681
      14       -0.000000068556     0.000000051191     0.000000067814
      15       -0.000000104653    -0.000000072892     0.000000080570
      16        0.000000033927     0.000000068573    -0.000000049607
      17       -0.000000026150    -0.000000167892    -0.000000103815
      18        0.000000035561    -0.000000113785     0.000000106899
      19        0.000000010286     0.000000028525     0.000000092036
      20       -0.000000013852     0.000000158513    -0.000000113392
      21        0.000000195793    -0.000000016616    -0.000000158851
      22       -0.000000116620     0.000000130636     0.000000079291
      23        0.000000081639    -0.000000102102     0.000000164988
      24       -0.000000214136     0.000000020018     0.000000436911
      25        0.000000159537    -0.000000245657    -0.000000230847
      26       -0.000000113146     0.000000208174    -0.000000145214

  **** Optimization is complete! (in 11 steps) ****
    Final optimized geometry and variables:
    Molecular point group: c1

    Geometry (in Angstrom), charge = 0, multiplicity = 1:

    C           -1.580611691848     1.875164532061    -0.153127499790
    H           -2.040773603376     2.661809056696    -0.751695173082
    H           -0.619195883283     1.634396704048    -0.603626182431
    H           -1.387141238635     2.283497296902     0.840081618142
    C            3.430617791137     0.673450611336     0.361862183743
    H            3.794881095888    -0.083714312398     1.057320872051
    H            3.027779673193     1.498424155493     0.950858779741
    H            4.284088293807     1.049364780024    -0.201882708464
    C           -2.494492066959     0.655534079914    -0.055469906576
    H           -2.708111387839     0.269887307339    -1.056814703333
    H           -3.452417605629     0.983856680913     0.353006835866
    C            2.360773862708     0.093682129752    -0.554957052226
    H            2.025016569699     0.859183134265    -1.260421572477
    H            2.785196636915    -0.714912987241    -1.156105439429
    C           -1.942710276655    -0.481632003843     0.815159737159
    H           -2.775154752283    -0.994599194707     1.302100381223
    H           -1.337693692427    -0.058904030460     1.621997603368
    C           -1.142660365749    -1.537422651927     0.048733074493
    H           -1.814521424147    -2.017388714177    -0.668916898298
    H           -0.828514359954    -2.318754318140     0.747541409211
    C            0.087303937000    -1.022793366696    -0.695515036264
    H            0.528105578977    -1.849823407484    -1.259963027996
    H           -0.212683745468    -0.279292630582    -1.439327388553
    C            1.156518497011    -0.432784000097     0.215416714768
    H            0.737178731413     0.380826353176     0.813072259041
    H            1.485414205131    -1.198720590768     0.925879191581

*** Psi4 exiting successfully. Buy a developer a beer!
