                              Psi4 1.0.0 Driver

  ==> Input File <==

--------------------------------------------------------------------------
memory 30 Gb

molecule molecule_01_psi {
0 1
symmetry c1
    C            4.453195629309    -0.267480458757    -0.000091896544
    H            5.330931402329     0.378294856259    -0.000116044329
    H            4.508280058514    -0.908592965948    -0.880741764502
    H            4.508316467356    -0.908576568711     0.880567648400
    C           -4.453196354276     0.267476132037     0.000094392207
    H           -4.508320381209     0.908570813892    -0.880565851794
    H           -4.508280885987     0.908589541557     0.880743480025
    H           -5.330930294018    -0.378301619528     0.000120944504
    C            3.160479588410     0.539038763698    -0.000072669676
    H            3.132822973176     1.192920499631    -0.875746358400
    H            3.132859203751     1.192936829309     0.875589993077
    C           -3.160478114308    -0.539039694901     0.000073955086
    H           -3.132818214346    -1.192920133352     0.875748465808
    H           -3.132857372887    -1.192938567053    -0.875588003376
    C            1.921224008678    -0.347023124161    -0.000038820847
    H            1.946615411549    -1.002461320543     0.876524048456
    H            1.946578695015    -1.002477065812    -0.876590961687
    C            0.619287870282     0.443473725199    -0.000018676406
    H            0.594305823613     1.098628105992    -0.876633433146
    H            0.594343456144     1.098645382945     0.876584259115
    C           -0.619287740533    -0.443470111053     0.000016655147
    H           -0.594343303963    -1.098641696970    -0.876586379367
    H           -0.594305585351    -1.098624442877     0.876631539430
    C           -1.921224822770     0.347025281548     0.000036871873
    H           -1.946579735074     1.002480612904     0.876587750003
    H           -1.946618490071     1.002461622852    -0.876527079917
}

set globals {
  reference rhf
  g_convergence gau_verytight
  basis aug-cc-pvtz
  freeze_core true
  scf_type df
  mp_type df
}
optimize('mp2')
--------------------------------------------------------------------------

    Molecular point group: c1
  Charge       = 0
  Multiplicity = 1
  Basis Set: AUG-CC-PVTZ
  Basis Set:

    Orbital Energies (a.u.)
    -----------------------

    Doubly Occupied:

       1A    -11.212396     2A    -11.212396     3A    -11.210460
       4A    -11.210161     5A    -11.209778     6A    -11.209448
       7A    -11.207003     8A    -11.207003     9A     -1.092804
      10A     -1.062602    11A     -1.013520    12A     -0.949519
      13A     -0.877299    14A     -0.811766    15A     -0.784926
      16A     -0.782054    17A     -0.657650    18A     -0.631169
      19A     -0.596792    20A     -0.590962    21A     -0.573060
      22A     -0.567244    23A     -0.544481    24A     -0.531460
      25A     -0.501830    26A     -0.494159    27A     -0.492660
      28A     -0.472361    29A     -0.467061    30A     -0.459211
      31A     -0.457505    32A     -0.456274    33A     -0.426943

  @DF-RHF Final Energy:  -313.54801619815692

   => Energetics <=

    Nuclear Repulsion Energy =            376.0973305615967774
    One-Electron Energy =               -1167.3427800562576522
    Two-Electron Energy =                 477.6974332965040730
    DFT Exchange-Correlation Energy =       0.0000000000000000
    Empirical Dispersion Energy =           0.0000000000000000
    PCM Polarization Energy =               0.0000000000000000
    EFP Energy =                            0.0000000000000000
    Total Energy =                       -313.5480161981568017
  Basis Set:
    Molecular point group: c1
  Basis Set: AUG-CC-PVTZ
  Basis Set:
  Basis Set:
	 Reference Energy          =    -313.5480161981569154 [Eh]
	 Singles Energy            =      -0.0000000000000003 [Eh]
	 Same-Spin Energy          =      -0.3144344589962912 [Eh]
	 Opposite-Spin Energy      =      -1.1227323072593003 [Eh]
	 Correlation Energy        =      -1.4371667662555918 [Eh]
	 Total Energy              =    -314.9851829644125019 [Eh]

	 ================> DF-SCS-MP2 Energies <==================
	-----------------------------------------------------------
	 SCS Same-Spin Scale       =       0.3333333333333333 [-]
	 SCS Opposite-Spin Scale   =       1.2000000000000000 [-]
	 SCS Same-Spin Energy      =      -0.1048114863320971 [Eh]
	 SCS Opposite-Spin Energy  =      -1.3472787687111603 [Eh]
	 SCS Correlation Energy    =      -1.4520902550432577 [Eh]
	 SCS Total Energy          =    -315.0001064532001465 [Eh]
	-----------------------------------------------------------

  -Total Gradient:
     Atom            X                  Y                   Z
    ------   -----------------  -----------------  -----------------
       1       -0.000000148175     0.000000052577    -0.000000007698
       2       -0.000000074952    -0.000000185795     0.000000001145
       3        0.000000061793     0.000000194285     0.000000249240
       4        0.000000062161     0.000000190129    -0.000000242745
       5        0.000000099857     0.000000067575    -0.000000003568
       6       -0.000000051853    -0.000000222021     0.000000277842
       7       -0.000000056507    -0.000000213488    -0.000000269864
       8        0.000000069632     0.000000159754     0.000000001910
       9        0.000000492444     0.000000599526    -0.000000010173
      10        0.000000037034    -0.000000328881     0.000000336988
      11        0.000000037902    -0.000000315714    -0.000000325378
      12       -0.000000360613    -0.000000668454    -0.000000008841
      13       -0.000000028519     0.000000320060    -0.000000296314
      14       -0.000000021953     0.000000339890     0.000000309432
      15       -0.000000618649    -0.000001247964     0.000000009274
      16       -0.000000119667     0.000000537699    -0.000000570498
      17       -0.000000123738     0.000000532845     0.000000565295
      18       -0.000000159022     0.000001265253     0.000000007525
      19       -0.000000012513    -0.000000851478     0.000000844835
      20       -0.000000007542    -0.000000855016    -0.000000849353
      21        0.000000247646    -0.000001272302    -0.000000000309
      22       -0.000000018350     0.000000841372     0.000000791460
      23       -0.000000013922     0.000000836541    -0.000000788403
      24        0.000000490578     0.000001359375    -0.000000018801
      25        0.000000107184    -0.000000566309    -0.000000632240
      26        0.000000109748    -0.000000569460     0.000000629239

  **** Optimization is complete! (in 1 steps) ****
    Final optimized geometry and variables:
    Molecular point group: c1

    Geometry (in Angstrom), charge = 0, multiplicity = 1:

    C            4.453195629309    -0.267480458757    -0.000091896544
    H            5.330931402329     0.378294856259    -0.000116044329
    H            4.508280058514    -0.908592965948    -0.880741764502
    H            4.508316467356    -0.908576568711     0.880567648400
    C           -4.453196354276     0.267476132037     0.000094392207
    H           -4.508320381209     0.908570813892    -0.880565851794
    H           -4.508280885987     0.908589541557     0.880743480025
    H           -5.330930294018    -0.378301619528     0.000120944504
    C            3.160479588410     0.539038763698    -0.000072669676
    H            3.132822973176     1.192920499631    -0.875746358400
    H            3.132859203751     1.192936829309     0.875589993077
    C           -3.160478114308    -0.539039694901     0.000073955086
    H           -3.132818214346    -1.192920133352     0.875748465808
    H           -3.132857372887    -1.192938567053    -0.875588003376
    C            1.921224008678    -0.347023124161    -0.000038820847
    H            1.946615411549    -1.002461320543     0.876524048456
    H            1.946578695015    -1.002477065812    -0.876590961687
    C            0.619287870282     0.443473725199    -0.000018676406
    H            0.594305823613     1.098628105992    -0.876633433146
    H            0.594343456144     1.098645382945     0.876584259115
    C           -0.619287740533    -0.443470111053     0.000016655147
    H           -0.594343303963    -1.098641696970    -0.876586379367
    H           -0.594305585351    -1.098624442877     0.876631539430
    C           -1.921224822770     0.347025281548     0.000036871873
    H           -1.946579735074     1.002480612904     0.876587750003
    H           -1.946618490071     1.002461622852    -0.876527079917

*** Psi4 exiting successfully. Buy a developer a beer!
