                              Psi4 1.0.0 Driver

  ==> Input File <==

--------------------------------------------------------------------------
memory 60 Gb

molecule molecule_58_psi {
0 1
C            2.208962860692    -1.567667954145    -0.598541654431
H            2.252890442055    -1.258287072749    -1.643975394945
H            1.164570422813    -1.754032483686    -0.347983547373
H            2.743597059521    -2.512997348778    -0.505758935720
C           -3.663753288210    -0.570669732780     0.495088728755
H           -3.974301217525    -1.500942360801     0.970103077877
H           -4.208004464385    -0.475185853198    -0.445307965197
H           -3.969758821044     0.253847316580     1.140309309447
C            2.818335770607    -0.505910123518     0.310032204873
H            3.885385524311    -0.415985502575     0.093169152322
H            2.741214392812    -0.835570427498     1.349893906763
C           -2.159294969550    -0.535914696448     0.254434768954
H           -1.637887088374    -0.665257418699     1.204839957576
H           -1.866778487598    -1.378348934521    -0.379153024464
C            2.169458861025     0.872569632057     0.186982684456
H            2.326023870448     1.258538025274    -0.825426089703
H            2.693158895034     1.555271900591     0.859413881890
C            0.667331495667     0.884038729651     0.505678115155
H            0.408963334628     1.798571586039     1.046381497448
H            0.442761469534     0.056040207920     1.183920966321
C           -0.223042124442     0.809371379160    -0.733403780208
H           -0.012850705306     1.685156331016    -1.353960831819
H            0.042721551424    -0.063201311152    -1.335291204848
C           -1.714622561737     0.761607236692    -0.412572815871
H           -1.975469798579     1.606980999094     0.233083928003
H           -2.287117226298     0.890044431097    -1.335920447515
}

set globals {
  reference rhf
  g_convergence gau_verytight
  basis aug-cc-pvtz
  freeze_core true
  scf_type df
  mp_type df
}
optimize('mp2')
--------------------------------------------------------------------------

    Molecular point group: c1
  Charge       = 0
  Multiplicity = 1
  Basis Set: AUG-CC-PVTZ
  Basis Set:
  @DF-RHF Final Energy:  -313.53878762035930
    Total Energy =                       -313.5387876203600968
  Basis Set:
    Molecular point group: c1
  Basis Set: AUG-CC-PVTZ
  Basis Set:
  Basis Set:
	 Reference Energy          =    -313.5387876203593009 [Eh]
	 Singles Energy            =      -0.0000000000000000 [Eh]
	 Same-Spin Energy          =      -0.3163312783051797 [Eh]
	 Opposite-Spin Energy      =      -1.1256556104716531 [Eh]
	 Correlation Energy        =      -1.4419868887768328 [Eh]
	 Total Energy              =    -314.9807745091361539 [Eh]
	 SCS Total Energy          =    -314.9950181123603556 [Eh]
  Basis Set: AUG-CC-PVTZ
  Basis Set:
  @DF-RHF Final Energy:  -313.53878757711971
    Total Energy =                       -313.5387875771201607
  Basis Set:
  Basis Set: AUG-CC-PVTZ
  Basis Set:
  @DF-RHF Final Energy:  -313.53878760914557
    Total Energy =                       -313.5387876091456292
  @DF-RHF Final Energy:  -313.53878758776295
    Total Energy =                       -313.5387875877628403
  @DF-RHF Final Energy:  -313.53878760463260
    Total Energy =                       -313.5387876046326596
  @DF-RHF Final Energy:  -313.53878761302417
    Total Energy =                       -313.5387876130243399
  @DF-RHF Final Energy:  -313.53878759077094
    Total Energy =                       -313.5387875907710509
  @DF-RHF Final Energy:  -313.53878760172734
    Total Energy =                       -313.5387876017281314
	 Singles Energy            =      -0.0000000000000003 [Eh]
	 Same-Spin Energy          =      -0.3163312980749746 [Eh]
	 Opposite-Spin Energy      =      -1.1256556080653728 [Eh]
	 Correlation Energy        =      -1.4419869061403476 [Eh]
	 Total Energy              =    -314.9807745078676930 [Eh]
	 SCS Total Energy          =    -314.9950180974307727 [Eh]
  Charge       = 0
  Multiplicity = 1
  Basis Set: AUG-CC-PVTZ
  Basis Set:

    Orbital Energies (a.u.)
    -----------------------

    Doubly Occupied:

       1A    -11.213152     2A    -11.212217     3A    -11.210405
       4A    -11.210129     5A    -11.209602     6A    -11.208930
       7A    -11.207032     8A    -11.206867     9A     -1.093332
      10A     -1.060356    11A     -1.007228    12A     -0.949142
      13A     -0.883635    14A     -0.828452    15A     -0.781499
      16A     -0.766929    17A     -0.644328    18A     -0.625342
      19A     -0.611198    20A     -0.597047    21A     -0.578807
      22A     -0.557128    23A     -0.548357    24A     -0.526672
      25A     -0.511916    26A     -0.504278    27A     -0.487724
      28A     -0.482758    29A     -0.464148    30A     -0.458615
      31A     -0.444732    32A     -0.439541    33A     -0.432306

  @DF-RHF Final Energy:  -313.53878758680810

   => Energetics <=

    Nuclear Repulsion Energy =            395.5851853142431764
    One-Electron Energy =               -1206.3203376474821198
    Two-Electron Energy =                 497.1963647464312430
    DFT Exchange-Correlation Energy =       0.0000000000000000
    Empirical Dispersion Energy =           0.0000000000000000
    PCM Polarization Energy =               0.0000000000000000
    EFP Energy =                            0.0000000000000000
    Total Energy =                       -313.5387875868077003
  Basis Set:
    Molecular point group: c1
  Basis Set: AUG-CC-PVTZ
  Basis Set:
  Basis Set:
	 Reference Energy          =    -313.5387875868080982 [Eh]
	 Singles Energy            =      -0.0000000000000005 [Eh]
	 Same-Spin Energy          =      -0.3163312969503293 [Eh]
	 Opposite-Spin Energy      =      -1.1256556211296669 [Eh]
	 Correlation Energy        =      -1.4419869180799967 [Eh]
	 Total Energy              =    -314.9807745048880747 [Eh]

	 ================> DF-SCS-MP2 Energies <==================
	-----------------------------------------------------------
	 SCS Same-Spin Scale       =       0.3333333333333333 [-]
	 SCS Opposite-Spin Scale   =       1.2000000000000000 [-]
	 SCS Same-Spin Energy      =      -0.1054437656501098 [Eh]
	 SCS Opposite-Spin Energy  =      -1.3507867453556002 [Eh]
	 SCS Correlation Energy    =      -1.4562305110057103 [Eh]
	 SCS Total Energy          =    -314.9950180978137837 [Eh]
	-----------------------------------------------------------

  -Total Gradient:
     Atom            X                  Y                   Z
    ------   -----------------  -----------------  -----------------
       1        0.000000058924    -0.000000136983     0.000000040918
       2        0.000000017807     0.000000070762    -0.000000112554
       3       -0.000000175279    -0.000000077466     0.000000022695
       4        0.000000089313    -0.000000026788     0.000000029917
       5        0.000000001902     0.000000050549     0.000000013348
       6        0.000000021088     0.000000079240    -0.000000043684
       7        0.000000101859    -0.000000025277     0.000000117885
       8        0.000000058530    -0.000000109629    -0.000000084436
       9       -0.000000467066    -0.000000082220    -0.000000215529
      10        0.000000316188     0.000000097839    -0.000000098001
      11        0.000000036046    -0.000000043324     0.000000340497
      12        0.000000220213    -0.000000271373     0.000000118656
      13       -0.000000171955     0.000000113034    -0.000000280923
      14       -0.000000107682     0.000000313119     0.000000164904
      15       -0.000000219028    -0.000000275165     0.000000258765
      16        0.000000042469     0.000000188269    -0.000000478700
      17        0.000000245660     0.000000142336     0.000000247950
      18       -0.000000490031    -0.000000008472    -0.000000236168
      19       -0.000000082750     0.000000099069     0.000000026974
      20        0.000000192407    -0.000000091700     0.000000126730
      21        0.000000296509    -0.000000085119    -0.000000113986
      22        0.000000000881    -0.000000012976    -0.000000033994
      23       -0.000000177324     0.000000168852     0.000000252361
      24        0.000000021991     0.000000339818    -0.000000049698
      25        0.000000059539    -0.000000398524    -0.000000241013
      26        0.000000109792    -0.000000017874     0.000000227085

  **** Optimization is complete! (in 9 steps) ****
    Final optimized geometry and variables:
    Molecular point group: c1

    Geometry (in Angstrom), charge = 0, multiplicity = 1:

    C            2.208957773921    -1.567668631529    -0.598536746742
    H            2.252880538948    -1.258291415215    -1.643971821801
    H            1.164566326495    -1.754031968168    -0.347973186779
    H            2.743592203326    -2.512998044785    -0.505753446069
    C           -3.663751795076    -0.570670371278     0.495089094680
    H           -3.974299978842    -1.500943687397     0.970101936122
    H           -4.208006023869    -0.475182807141    -0.445305410561
    H           -3.969753566871     0.253845532659     1.140312952132
    C            2.818335735648    -0.505908212007     0.310030735926
    H            3.885384393067    -0.415984280978     0.093160931082
    H            2.741221373092    -0.835566746176     1.349893770078
    C           -2.159294225675    -0.535917036779     0.254429964410
    H           -1.637883413792    -0.665264904734     1.204832854005
    H           -1.866781447047    -1.378349214669    -0.379162048538
    C            2.169458891121     0.872571332678     0.186983813200
    H            2.326023209156     1.258540952889    -0.825424476015
    H            2.693159098166     1.555272884018     0.859415541370
    C            0.667331977807     0.884039031247     0.505678726094
    H            0.408962720039     1.798570751323     1.046383104194
    H            0.442762588480     0.056039535576     1.183920655261
    C           -0.223040882683     0.809372161393    -0.733403689174
    H           -0.012849392638     1.685157064972    -1.353961185980
    H            0.042724128269    -0.063200384567    -1.335290289173
    C           -1.714621363237     0.761606518049    -0.412574091331
    H           -1.975468494185     1.606978307812     0.233085296552
    H           -2.287115915297     0.890046685181    -1.335921645808

*** Psi4 exiting successfully. Buy a developer a beer!
