                              Psi4 1.0.0 Driver

  ==> Input File <==

--------------------------------------------------------------------------
memory 60 Gb

molecule molecule_57_psi {
0 1
C           -2.939228815032     1.040926423366    -0.071138167857
H           -2.132482663991     1.583303501498     0.422050706430
H           -3.880703726444     1.479403034446     0.259627620788
H           -2.849440525688     1.210108351368    -1.145272730707
C            3.228852786025    -0.682343198548    -0.428389811258
H            2.491871993088    -1.384016925641    -0.819148857244
H            4.058297786130    -1.264575283997    -0.027721158823
H            3.605620395880    -0.095060489829    -1.267635815895
C           -2.889057139859    -0.447929454017     0.252422400678
H           -3.760339260195    -0.940472100132    -0.185694009806
H           -2.969221009882    -0.583392026606     1.334609436832
C            2.626394420135     0.225233828968     0.638141709440
H            2.223813106214    -0.381631922608     1.451975015507
H            3.415557206435     0.838980909925     1.077959696378
C           -1.623792666686    -1.154840287164    -0.233218279583
H           -1.577204082232    -1.106184930140    -1.325956441090
H           -1.707299293370    -2.213024029671     0.023224906428
C           -0.325803091051    -0.579822539778     0.352286715921
H            0.369019567779    -1.394111379592     0.568336691404
H           -0.541242360706    -0.102787002866     1.315358429773
C            0.365714738777     0.423923815807    -0.567704335565
H            0.706582898823    -0.100844919302    -1.464612425610
H           -0.358080880821     1.165103479601    -0.911543354756
C            1.537235095520     1.148649733371     0.092655415991
H            1.987138381844     1.833852877507    -0.631937061772
H            1.152494486376     1.767327747149     0.908977759814
}

set globals {
  reference rhf
  g_convergence gau_verytight
  basis aug-cc-pvtz
  freeze_core true
  scf_type df
  mp_type df
}
optimize('mp2')
--------------------------------------------------------------------------

    Molecular point group: c1
  Charge       = 0
  Multiplicity = 1
  Basis Set: AUG-CC-PVTZ
  Basis Set:
  @DF-RHF Final Energy:  -313.53683624375515
    Total Energy =                       -313.5368362437552605
  Basis Set:
    Molecular point group: c1
  Basis Set: AUG-CC-PVTZ
  Basis Set:
  Basis Set:
	 Reference Energy          =    -313.5368362437551468 [Eh]
	 Singles Energy            =      -0.0000000000000007 [Eh]
	 Same-Spin Energy          =      -0.3170461044447049 [Eh]
	 Opposite-Spin Energy      =      -1.1265729393905000 [Eh]
	 Correlation Energy        =      -1.4436190438352055 [Eh]
	 Total Energy              =    -314.9804552875903596 [Eh]
	 SCS Total Energy          =    -314.9944058058386531 [Eh]
  Basis Set: AUG-CC-PVTZ
  Basis Set:
  @DF-RHF Final Energy:  -313.53683665115381
    Total Energy =                       -313.5368366511539193
  Basis Set:
  Basis Set: AUG-CC-PVTZ
  Basis Set:
  @DF-RHF Final Energy:  -313.53683656435015
    Total Energy =                       -313.5368365643496986
  @DF-RHF Final Energy:  -313.53683644433852
    Total Energy =                       -313.5368364443382347
  @DF-RHF Final Energy:  -313.53683638515196
    Total Energy =                       -313.5368363851519575
  @DF-RHF Final Energy:  -313.53683637998586
    Total Energy =                       -313.5368363799855160
  @DF-RHF Final Energy:  -313.53683636089465
    Total Energy =                       -313.5368363608947107
  @DF-RHF Final Energy:  -313.53683661926368
    Total Energy =                       -313.5368366192636813
  @DF-RHF Final Energy:  -313.53683637139272
    Total Energy =                       -313.5368363713930648
  @DF-RHF Final Energy:  -313.53683637312633
    Total Energy =                       -313.5368363731262207
  @DF-RHF Final Energy:  -313.53683629217085
    Total Energy =                       -313.5368362921707899
  @DF-RHF Final Energy:  -313.53683634045603
    Total Energy =                       -313.5368363404558636
  @DF-RHF Final Energy:  -313.53683635088078
    Total Energy =                       -313.5368363508806056
  @DF-RHF Final Energy:  -313.53683639980170
    Total Energy =                       -313.5368363998019277
  @DF-RHF Final Energy:  -313.53683633170670
    Total Energy =                       -313.5368363317070362
  @DF-RHF Final Energy:  -313.53683637048539
    Total Energy =                       -313.5368363704853323
  @DF-RHF Final Energy:  -313.53683636292891
    Total Energy =                       -313.5368363629290229
  @DF-RHF Final Energy:  -313.53683642089982
    Total Energy =                       -313.5368364208996468
  @DF-RHF Final Energy:  -313.53683630974587
    Total Energy =                       -313.5368363097460360
  @DF-RHF Final Energy:  -313.53683635228919
    Total Energy =                       -313.5368363522891286
  @DF-RHF Final Energy:  -313.53683637267824
    Total Energy =                       -313.5368363726784082
  @DF-RHF Final Energy:  -313.53683637031594
    Total Energy =                       -313.5368363703159389
  @DF-RHF Final Energy:  -313.53683653315284
    Total Energy =                       -313.5368365331523250
  @DF-RHF Final Energy:  -313.53683640616867
    Total Energy =                       -313.5368364061687885
  @DF-RHF Final Energy:  -313.53683632465675
    Total Energy =                       -313.5368363246567469
  @DF-RHF Final Energy:  -313.53683631419932
    Total Energy =                       -313.5368363141993200
  @DF-RHF Final Energy:  -313.53683682563252
    Total Energy =                       -313.5368368256326903
  @DF-RHF Final Energy:  -313.53683621748775
    Total Energy =                       -313.5368362174878030
  @DF-RHF Final Energy:  -313.53683618929728
    Total Energy =                       -313.5368361892971052
	 Singles Energy            =      -0.0000000000000003 [Eh]
	 Same-Spin Energy          =      -0.3170461452236741 [Eh]
	 Opposite-Spin Energy      =      -1.1265729533286803 [Eh]
	 Correlation Energy        =      -1.4436190985523547 [Eh]
	 Total Energy              =    -314.9804552878496224 [Eh]
	 SCS Total Energy          =    -314.9944057816995837 [Eh]
  Charge       = 0
  Multiplicity = 1
  Basis Set: AUG-CC-PVTZ
  Basis Set:

    Orbital Energies (a.u.)
    -----------------------

    Doubly Occupied:

       1A    -11.213348     2A    -11.211771     3A    -11.210668
       4A    -11.210315     5A    -11.209784     6A    -11.208170
       7A    -11.207120     8A    -11.206672     9A     -1.094293
      10A     -1.060083    11A     -1.003119    12A     -0.948632
      13A     -0.889544    14A     -0.835552    15A     -0.777807
      16A     -0.755958    17A     -0.649422    18A     -0.625520
      19A     -0.613069    20A     -0.600472    21A     -0.572520
      22A     -0.559401    23A     -0.541031    24A     -0.533599
      25A     -0.513278    26A     -0.503241    27A     -0.496123
      28A     -0.473895    29A     -0.462593    30A     -0.459537
      31A     -0.448349    32A     -0.435127    33A     -0.432093

  @DF-RHF Final Energy:  -313.53683634450636

   => Energetics <=

    Nuclear Repulsion Energy =            398.9797718467217464
    One-Electron Energy =               -1213.1090007151033205
    Two-Electron Energy =                 500.5923925238752759
    DFT Exchange-Correlation Energy =       0.0000000000000000
    Empirical Dispersion Energy =           0.0000000000000000
    PCM Polarization Energy =               0.0000000000000000
    EFP Energy =                            0.0000000000000000
    Total Energy =                       -313.5368363445062982
  Basis Set:
    Molecular point group: c1
  Basis Set: AUG-CC-PVTZ
  Basis Set:
  Basis Set:
	 Reference Energy          =    -313.5368363445063551 [Eh]
	 Singles Energy            =      -0.0000000000000001 [Eh]
	 Same-Spin Energy          =      -0.3170460674665971 [Eh]
	 Opposite-Spin Energy      =      -1.1265728736605150 [Eh]
	 Correlation Energy        =      -1.4436189411271121 [Eh]
	 Total Energy              =    -314.9804552856334681 [Eh]

	 ================> DF-SCS-MP2 Energies <==================
	-----------------------------------------------------------
	 SCS Same-Spin Scale       =       0.3333333333333333 [-]
	 SCS Opposite-Spin Scale   =       1.2000000000000000 [-]
	 SCS Same-Spin Energy      =      -0.1056820224888657 [Eh]
	 SCS Opposite-Spin Energy  =      -1.3518874483926180 [Eh]
	 SCS Correlation Energy    =      -1.4575694708814837 [Eh]
	 SCS Total Energy          =    -314.9944058153878359 [Eh]
	-----------------------------------------------------------

  -Total Gradient:
     Atom            X                  Y                   Z
    ------   -----------------  -----------------  -----------------
       1        0.000000175595     0.000000417435    -0.000000094524
       2       -0.000000330143    -0.000000303817    -0.000000184757
       3        0.000000237515    -0.000000085988    -0.000000096528
       4       -0.000000077412    -0.000000164860     0.000000482676
       5        0.000000123474    -0.000000236518    -0.000000312359
       6        0.000000317742     0.000000280491     0.000000185423
       7       -0.000000296736     0.000000214692    -0.000000201361
       8       -0.000000163405    -0.000000157861     0.000000376671
       9       -0.000000028149    -0.000000242032     0.000000063239
      10        0.000000172160     0.000000164203     0.000000162565
      11        0.000000064826     0.000000018146    -0.000000417520
      12        0.000000104920     0.000000134977     0.000000756518
      13        0.000000210129     0.000000381639    -0.000000557910
      14       -0.000000368616    -0.000000222435    -0.000000122602
      15        0.000000163688    -0.000000384117    -0.000000649263
      16       -0.000000002311     0.000000006999     0.000000870433
      17        0.000000009813     0.000000397183    -0.000000163588
      18        0.000000063876    -0.000000347912     0.000000938838
      19       -0.000000415862     0.000000463805    -0.000000062901
      20        0.000000218919    -0.000000290060    -0.000000746893
      21       -0.000000252725     0.000000114825    -0.000000682996
      22       -0.000000178432     0.000000393627     0.000000560923
      23        0.000000208629    -0.000000455455     0.000000202755
      24        0.000000134232     0.000000633256    -0.000000181347
      25       -0.000000235179    -0.000000364303     0.000000406056
      26        0.000000143449    -0.000000365916    -0.000000531549

  **** Optimization is complete! (in 30 steps) ****
    Final optimized geometry and variables:
    Molecular point group: c1

    Geometry (in Angstrom), charge = 0, multiplicity = 1:

    C           -2.939227412902     1.040929930414    -0.071142766168
    H           -2.132480030610     1.583316262258     0.422034412116
    H           -3.880701537723     1.479411350268     0.259619392795
    H           -2.849442991552     1.210095457223    -1.145280659593
    C            3.228861458024    -0.682346532347    -0.428361726558
    H            2.491891297846    -1.384035601381    -0.819112889531
    H            4.058307200966    -1.264562529536    -0.027671526887
    H            3.605633053550    -0.095080620635    -1.267617639978
    C           -2.889053708574    -0.447920776925     0.252441844199
    H           -3.760341954187    -0.940469222951    -0.185656290814
    H           -2.969206525871    -0.583366258375     1.334632232164
    C            2.626385292969     0.225250665444     0.638142694480
    H            2.223799056141    -0.381599194507     1.451984691468
    H            3.415538977987     0.839011362801     1.077957325480
    C           -1.623796891897    -1.154842980205    -0.233203974820
    H           -1.577219082289    -1.106201059912    -1.325943659127
    H           -1.707305669334    -2.213023633314     0.023251958248
    C           -0.325796724997    -0.579828165632     0.352279984009
    H            0.369024689395    -1.394118201994     0.568329164236
    H           -0.541221415032    -0.102783280736     1.315350259181
    C            0.365714628310     0.423906226056    -0.567726531309
    H            0.706587173714    -0.100874600237    -1.464625651006
    H           -0.358082522358     1.165077536773    -0.911579100361
    C            1.537227669162     1.148649757153     0.092624479190
    H            1.987133320957     1.833835499501    -0.631981824549
    H            1.152481095617     1.767347983974     0.908927797507

*** Psi4 exiting successfully. Buy a developer a beer!
