                              Psi4 1.0.0 Driver

  ==> Input File <==

--------------------------------------------------------------------------
memory 60 Gb

molecule molecule_18_psi {
0 1
C           -2.687130000443    -1.292082109325    -0.462441540051
H           -2.132667030686    -1.154585587182    -1.390631238753
H           -3.645860771364    -0.781646541716    -0.569721169406
H           -2.885638509546    -2.357808463114    -0.351139409529
C            2.770301937524    -1.311897686075    -0.075851014517
H            2.211887331387    -1.608509002595    -0.962897212186
H            2.323562405585    -1.814614923857     0.783943406161
H            3.788640788136    -1.683361906635    -0.188058449413
C           -1.917337323085    -0.746240466499     0.735161493601
H           -0.949902271966    -1.249509541472     0.808692808281
H           -2.457103371174    -0.989857920919     1.652989203579
C            2.752493653460     0.200704780561     0.118993400997
H            3.406470096206     0.462133194188     0.953878380511
H            3.167411092855     0.690438642997    -0.766344996194
C           -1.710793094404     0.766483935859     0.676157656530
H           -1.179197283954     1.091201431020     1.573593456297
H           -2.688092318760     1.257225629297     0.705127891183
C           -0.957603709228     1.247963131078    -0.565770396540
H           -0.799343907329     2.327116271446    -0.483251850499
H           -1.580019667180     1.097641671382    -1.451048222562
C            0.391667156663     0.563654606628    -0.778799607490
H            0.235068496626    -0.501640255521    -0.963137173471
H            0.855161932077     0.966099770311    -1.684953431766
C            1.354522637452     0.752726240438     0.388835080366
H            1.423259747490     1.821036285006     0.616473453539
H            0.952546758806     0.269785173402     1.284444407484
}

set globals {
  reference rhf
  g_convergence gau_verytight
  basis aug-cc-pvtz
  freeze_core true
  scf_type df
  mp_type df
}
optimize('mp2')
--------------------------------------------------------------------------

    Molecular point group: c1
  Charge       = 0
  Multiplicity = 1
  Basis Set: AUG-CC-PVTZ
  Basis Set:
  @DF-RHF Final Energy:  -313.53967345896604
    Total Energy =                       -313.5396734589663197
  Basis Set:
    Molecular point group: c1
  Basis Set: AUG-CC-PVTZ
  Basis Set:
  Basis Set:
	 Reference Energy          =    -313.5396734589660355 [Eh]
	 Singles Energy            =      -0.0000000000000001 [Eh]
	 Same-Spin Energy          =      -0.3173910266843810 [Eh]
	 Opposite-Spin Energy      =      -1.1266984977132508 [Eh]
	 Correlation Energy        =      -1.4440895243976317 [Eh]
	 Total Energy              =    -314.9837629833636470 [Eh]
	 SCS Total Energy          =    -314.9975086651167544 [Eh]
  Basis Set: AUG-CC-PVTZ
  Basis Set:
  @DF-RHF Final Energy:  -313.53967333051202
    Total Energy =                       -313.5396733305116186
  Basis Set:
  Basis Set: AUG-CC-PVTZ
  Basis Set:
  @DF-RHF Final Energy:  -313.53967349591892
    Total Energy =                       -313.5396734959194305
  @DF-RHF Final Energy:  -313.53967344051063
    Total Energy =                       -313.5396734405106258
  @DF-RHF Final Energy:  -313.53967329631314
    Total Energy =                       -313.5396732963132536
  @DF-RHF Final Energy:  -313.53967350413359
    Total Energy =                       -313.5396735041336456
  @DF-RHF Final Energy:  -313.53967349253821
    Total Energy =                       -313.5396734925385545
  @DF-RHF Final Energy:  -313.53967345754199
    Total Energy =                       -313.5396734575419941
  @DF-RHF Final Energy:  -313.53967341240156
    Total Energy =                       -313.5396734124011573
  @DF-RHF Final Energy:  -313.53967353499718
    Total Energy =                       -313.5396735349971209
  @DF-RHF Final Energy:  -313.53967344632042
    Total Energy =                       -313.5396734463207054
  @DF-RHF Final Energy:  -313.53967355877575
    Total Energy =                       -313.5396735587759167
  @DF-RHF Final Energy:  -313.53967345992260
    Total Energy =                       -313.5396734599228239
  @DF-RHF Final Energy:  -313.53967354402937
    Total Energy =                       -313.5396735440293696
  @DF-RHF Final Energy:  -313.53967350629483
    Total Energy =                       -313.5396735062946618
  @DF-RHF Final Energy:  -313.53967392520531
    Total Energy =                       -313.5396739252053067
  @DF-RHF Final Energy:  -313.53967349887432
    Total Energy =                       -313.5396734988742651
  @DF-RHF Final Energy:  -313.53967416222042
    Total Energy =                       -313.5396741622200807
  @DF-RHF Final Energy:  -313.53967350011879
    Total Energy =                       -313.5396735001189086
  @DF-RHF Final Energy:  -313.53967348555739
    Total Energy =                       -313.5396734855572731
  @DF-RHF Final Energy:  -313.53967362851063
    Total Energy =                       -313.5396736285103430
  @DF-RHF Final Energy:  -313.53967352096959
    Total Energy =                       -313.5396735209699273
  @DF-RHF Final Energy:  -313.53967352083805
    Total Energy =                       -313.5396735208380505
  @DF-RHF Final Energy:  -313.53967355247079
    Total Energy =                       -313.5396735524707879
  @DF-RHF Final Energy:  -313.53967376905013
    Total Energy =                       -313.5396737690501254
  @DF-RHF Final Energy:  -313.53967351032730
    Total Energy =                       -313.5396735103271908
  @DF-RHF Final Energy:  -313.53967348503068
    Total Energy =                       -313.5396734850308462
  @DF-RHF Final Energy:  -313.53967357302275
    Total Energy =                       -313.5396735730229238
  @DF-RHF Final Energy:  -313.53967347165724
    Total Energy =                       -313.5396734716570109
  @DF-RHF Final Energy:  -313.53967348620614
    Total Energy =                       -313.5396734862060271
  @DF-RHF Final Energy:  -313.53967351286366
    Total Energy =                       -313.5396735128640557
  @DF-RHF Final Energy:  -313.53967349097576
    Total Energy =                       -313.5396734909759857
  @DF-RHF Final Energy:  -313.53967345152887
    Total Energy =                       -313.5396734515289268
  @DF-RHF Final Energy:  -313.53967346227671
    Total Energy =                       -313.5396734622769941
  @DF-RHF Final Energy:  -313.53967344698475
    Total Energy =                       -313.5396734469849207
  @DF-RHF Final Energy:  -313.53967337387826
    Total Energy =                       -313.5396733738787134
  @DF-RHF Final Energy:  -313.53967344668769
    Total Energy =                       -313.5396734466880844
  @DF-RHF Final Energy:  -313.53967346238625
    Total Energy =                       -313.5396734623862471
  @DF-RHF Final Energy:  -313.53967347454699
    Total Energy =                       -313.5396734745470440
	 Singles Energy            =      -0.0000000000000000 [Eh]
	 Same-Spin Energy          =      -0.3173910081651135 [Eh]
	 Opposite-Spin Energy      =      -1.1266985007967139 [Eh]
	 Correlation Energy        =      -1.4440895089618273 [Eh]
	 Total Energy              =    -314.9837629835088251 [Eh]
	 SCS Total Energy          =    -314.9975086782247331 [Eh]
  Charge       = 0
  Multiplicity = 1
  Basis Set: AUG-CC-PVTZ
  Basis Set:

    Orbital Energies (a.u.)
    -----------------------

    Doubly Occupied:

       1A    -11.212952     2A    -11.212262     3A    -11.210164
       4A    -11.210028     5A    -11.209501     6A    -11.208929
       7A    -11.207001     8A    -11.206860     9A     -1.096366
      10A     -1.059184    11A     -1.005462    12A     -0.943497
      13A     -0.893260    14A     -0.836693    15A     -0.784953
      16A     -0.744446    17A     -0.650940    18A     -0.629608
      19A     -0.610151    20A     -0.603648    21A     -0.575037
      22A     -0.554243    23A     -0.547368    24A     -0.533031
      25A     -0.510096    26A     -0.503668    27A     -0.494373
      28A     -0.469909    29A     -0.469846    30A     -0.461787
      31A     -0.441968    32A     -0.437702    33A     -0.435008

  @DF-RHF Final Energy:  -313.53967343308807

   => Energetics <=

    Nuclear Repulsion Energy =            403.1544466385165606
    One-Electron Energy =               -1221.4483552226793108
    Two-Electron Energy =                 504.7542351510747949
    DFT Exchange-Correlation Energy =       0.0000000000000000
    Empirical Dispersion Energy =           0.0000000000000000
    PCM Polarization Energy =               0.0000000000000000
    EFP Energy =                            0.0000000000000000
    Total Energy =                       -313.5396734330879553
  Basis Set:
    Molecular point group: c1
  Basis Set: AUG-CC-PVTZ
  Basis Set:
  Basis Set:
	 Reference Energy          =    -313.5396734330880690 [Eh]
	 Singles Energy            =      -0.0000000000000009 [Eh]
	 Same-Spin Energy          =      -0.3173910228433945 [Eh]
	 Opposite-Spin Energy      =      -1.1266985254884077 [Eh]
	 Correlation Energy        =      -1.4440895483318030 [Eh]
	 Total Energy              =    -314.9837629814198863 [Eh]

	 ================> DF-SCS-MP2 Energies <==================
	-----------------------------------------------------------
	 SCS Same-Spin Scale       =       0.3333333333333333 [-]
	 SCS Opposite-Spin Scale   =       1.2000000000000000 [-]
	 SCS Same-Spin Energy      =      -0.1057970076144648 [Eh]
	 SCS Opposite-Spin Energy  =      -1.3520382305860892 [Eh]
	 SCS Correlation Energy    =      -1.4578352382005548 [Eh]
	 SCS Total Energy          =    -314.9975086712886423 [Eh]
	-----------------------------------------------------------

  -Total Gradient:
     Atom            X                  Y                   Z
    ------   -----------------  -----------------  -----------------
       1       -0.000000053943    -0.000000123599     0.000000036582
       2       -0.000000052218     0.000000010469     0.000000089413
       3        0.000000035508    -0.000000066290     0.000000034962
       4        0.000000027203     0.000000029331    -0.000000004059
       5        0.000000039752     0.000000084554    -0.000000045761
       6        0.000000011716     0.000000013648     0.000000030871
       7       -0.000000045917    -0.000000038483     0.000000103082
       8        0.000000021140     0.000000011238     0.000000035071
       9       -0.000000429046     0.000000033485    -0.000000139406
      10        0.000000334096    -0.000000219905    -0.000000048325
      11       -0.000000050203     0.000000069618     0.000000152830
      12        0.000000057983    -0.000000259163    -0.000000061288
      13        0.000000164326     0.000000006933     0.000000151990
      14        0.000000028206     0.000000051574    -0.000000107181
      15        0.000000189910    -0.000000236317    -0.000000196618
      16        0.000000324867     0.000000177049     0.000000390738
      17       -0.000000180154    -0.000000017890     0.000000037001
      18       -0.000000173894     0.000000368692    -0.000000618430
      19       -0.000000030262    -0.000000234300    -0.000000135060
      20        0.000000265725     0.000000098155     0.000000233779
      21       -0.000000589066    -0.000000383778    -0.000000854112
      22       -0.000000147136     0.000000492278    -0.000000325068
      23       -0.000000015078    -0.000000154654     0.000000275431
      24        0.000000375946     0.000000104767     0.000000597010
      25        0.000000080358     0.000000419317     0.000000025282
      26       -0.000000189816    -0.000000236730     0.000000341270

  **** Optimization is complete! (in 40 steps) ****
    Final optimized geometry and variables:
    Molecular point group: c1

    Geometry (in Angstrom), charge = 0, multiplicity = 1:

    C           -2.687133474612    -1.292077324148    -0.462444771157
    H           -2.132658786986    -1.154597112166    -1.390630219782
    H           -3.645854056959    -0.781624566467    -0.569736899997
    H           -2.885662815349    -2.357799368842    -0.351137469987
    C            2.770307803015    -1.311895063951    -0.075845805461
    H            2.211883534055    -1.608515482116    -0.962882341974
    H            2.323581934081    -1.814607916439     0.783957726303
    H            3.788646403914    -1.683355454994    -0.188063593297
    C           -1.917342234504    -0.746243276294     0.735162074843
    H           -0.949910301649    -1.249519827726     0.808698269975
    H           -2.457115195917    -0.989856721884     1.652986854781
    C            2.752494061041     0.200708720433     0.118988789704
    H            3.406473578474     0.462145290448     0.953868444021
    H            3.167404615808     0.690438760208    -0.766354633730
    C           -1.710790061716     0.766480125375     0.676161004172
    H           -1.179188702541     1.091194124874     1.573596063559
    H           -2.688087599766     1.257226475987     0.705136215527
    C           -0.957604318603     1.247959817393    -0.565769365079
    H           -0.799346691346     2.327113853307    -0.483250016763
    H           -1.580022061195     1.097637042558    -1.451047044087
    C            0.391668266211     0.563654485731    -0.778801527807
    H            0.235073621773    -0.501640377563    -0.963146296475
    H            0.855162645178     0.966107141456    -1.684951999544
    C            1.354521183528     0.752724042871     0.388834415204
    H            1.423253977278     1.821033695031     0.616478244575
    H            0.952549818189     0.269775149068     1.284441627798

*** Psi4 exiting successfully. Buy a developer a beer!
