                              Psi4 1.0.0 Driver

  ==> Input File <==

--------------------------------------------------------------------------
memory 30 Gb

molecule molecule_42 {
0 1
    C            3.316196998057    -0.252362671128     0.307110680554
    H            3.104843401539     0.783407785663     0.062713662557
    H            3.141386115349    -0.846796522098    -0.585537618986
    H            4.373145349525    -0.320295644579     0.546440349270
    C           -3.542826783043    -0.318703926049    -1.485357793435
    H           -3.526003358176    -0.028043847931    -2.532002585653
    H           -4.536588099882    -0.111165674517    -1.100412575826
    H           -3.388721091437    -1.393244151998    -1.439677712807
    C            2.464840208398    -0.747483622482     1.476944951059
    H            2.661760957565    -0.127695253709     2.349411364805
    H            2.786741792703    -1.752143260970     1.741315028490
    C           -2.472280155650     0.426303452143    -0.687750881763
    H           -2.670793356968     1.495476891648    -0.729596924357
    H           -2.549909205941     0.141960094338     0.357807619285
    C            0.952463530762    -0.778447209523     1.218540022823
    H            0.483123353168    -1.237777642303     2.084407424329
    H            0.750317094422    -1.446737995654     0.385068882254
    C            0.303604352916     0.600286870774     0.966980084387
    H            0.934237523328     1.371639397439     1.403510667225
    H           -0.635928622663     0.658299962040     1.507486132069
    C            0.050280179432     0.956119699790    -0.506991644295
    H           -0.201142802518     2.013303513101    -0.569251308543
    H            0.971235806648     0.833343891730    -1.069716603764
    C           -1.057120576826     0.154794210676    -1.206092094805
    H           -1.028107203484     0.395014274371    -2.267186548854
    H           -0.850078433826    -0.910853394710    -1.137610211668
}

set globals {
  reference rhf
  g_convergence gau_tight
  basis aug-cc-pvtz
  freeze_core true
}
optimize('mp2')
--------------------------------------------------------------------------

    Molecular point group: c1
  Charge       = 0
  Multiplicity = 1
  Basis Set: AUG-CC-PVTZ
  Basis Set:
  @DF-RHF Final Energy:  -313.53849963362796
    Total Energy =                       -313.5384996336279642
  Basis Set:
    Molecular point group: c1
  Basis Set: AUG-CC-PVTZ
  Basis Set:
  Basis Set:
	 Reference Energy          =    -313.5384996336279642 [Eh]
	 Singles Energy            =      -0.0000000000000000 [Eh]
	 Same-Spin Energy          =      -0.3154506235572302 [Eh]
	 Opposite-Spin Energy      =      -1.1244727030545674 [Eh]
	 Correlation Energy        =      -1.4399233266117977 [Eh]
	 Total Energy              =    -314.9784229602397545 [Eh]
	 SCS Total Energy          =    -314.9930170851458797 [Eh]
  Basis Set: AUG-CC-PVTZ
  Basis Set:
  @DF-RHF Final Energy:  -313.53658541061435
    Total Energy =                       -313.5365854106142365
  Basis Set:
  Basis Set: AUG-CC-PVTZ
  Basis Set:
  @DF-RHF Final Energy:  -313.53687281472128
    Total Energy =                       -313.5368728147209936
  @DF-RHF Final Energy:  -313.53678986419641
    Total Energy =                       -313.5367898641966349
  @DF-RHF Final Energy:  -313.53643198638514
    Total Energy =                       -313.5364319863850824
  @DF-RHF Final Energy:  -313.53670439655150
    Total Energy =                       -313.5367043965511584
  @DF-RHF Final Energy:  -313.53669093446223
    Total Energy =                       -313.5366909344622286
  @DF-RHF Final Energy:  -313.53662656954810
    Total Energy =                       -313.5366265695479342
  @DF-RHF Final Energy:  -313.53655365013486
    Total Energy =                       -313.5365536501349197
  @DF-RHF Final Energy:  -313.53660297023833
    Total Energy =                       -313.5366029702382775
  @DF-RHF Final Energy:  -313.53660538155827
    Total Energy =                       -313.5366053815582745
  @DF-RHF Final Energy:  -313.53656953183287
    Total Energy =                       -313.5365695318327539
  @DF-RHF Final Energy:  -313.53651929228960
    Total Energy =                       -313.5365192922899951
  @DF-RHF Final Energy:  -313.53635591615785
    Total Energy =                       -313.5363559161577314
  @DF-RHF Final Energy:  -313.53557360415357
    Total Energy =                       -313.5355736041536261
  @DF-RHF Final Energy:  -313.53595627259637
    Total Energy =                       -313.5359562725963656
  @DF-RHF Final Energy:  -313.53625082033562
    Total Energy =                       -313.5362508203357947
  @DF-RHF Final Energy:  -313.53602136117490
    Total Energy =                       -313.5360213611747895
  @DF-RHF Final Energy:  -313.53618559075449
    Total Energy =                       -313.5361855907543145
  @DF-RHF Final Energy:  -313.53615135750374
    Total Energy =                       -313.5361513575040249
  @DF-RHF Final Energy:  -313.53611243828743
    Total Energy =                       -313.5361124382877165
  @DF-RHF Final Energy:  -313.53562702512824
    Total Energy =                       -313.5356270251284059
  @DF-RHF Final Energy:  -313.53549744483593
    Total Energy =                       -313.5354974448358689
  @DF-RHF Final Energy:  -313.52850930334404
    Total Energy =                       -313.5285093033442081
  @DF-RHF Final Energy:  -313.53455731790234
    Total Energy =                       -313.5345573179022267
  @DF-RHF Final Energy:  -313.52650239375566
    Total Energy =                       -313.5265023937556634
  @DF-RHF Final Energy:  -313.53640956287506
    Total Energy =                       -313.5364095628750647
  @DF-RHF Final Energy:  -313.53355239001343
    Total Energy =                       -313.5335523900135399
  @DF-RHF Final Energy:  -313.53501553937156
    Total Energy =                       -313.5350155393717841
  @DF-RHF Final Energy:  -313.53645069817634
    Total Energy =                       -313.5364506981767363
  @DF-RHF Final Energy:  -313.53518573282923
    Total Energy =                       -313.5351857328294045
  @DF-RHF Final Energy:  -313.53636187701875
    Total Energy =                       -313.5363618770184075
  @DF-RHF Final Energy:  -313.53635065792338
    Total Energy =                       -313.5363506579234922
  @DF-RHF Final Energy:  -313.53647785300501
    Total Energy =                       -313.5364778530051808
  @DF-RHF Final Energy:  -313.53641968360995
    Total Energy =                       -313.5364196836101200
  @DF-RHF Final Energy:  -313.53643179541325
    Total Energy =                       -313.5364317954127955
  @DF-RHF Final Energy:  -313.53643134756459
    Total Energy =                       -313.5364313475646441
  @DF-RHF Final Energy:  -313.53643340742479
    Total Energy =                       -313.5364334074251929
  @DF-RHF Final Energy:  -313.53643538280056
    Total Energy =                       -313.5364353828002209
	 Singles Energy            =      -0.0000000000000003 [Eh]
	 Same-Spin Energy          =      -0.3174043819007667 [Eh]
	 Opposite-Spin Energy      =      -1.1269992377967515 [Eh]
	 Correlation Energy        =      -1.4444036196975183 [Eh]
	 Total Energy              =    -314.9808390024981009 [Eh]
	 SCS Total Energy          =    -314.9946359287902737 [Eh]
  Charge       = 0
  Multiplicity = 1
  Basis Set: AUG-CC-PVTZ
  Basis Set:

    Orbital Energies (a.u.)
    -----------------------

    Doubly Occupied:

       1A    -11.213408     2A    -11.212044     3A    -11.210821
       4A    -11.210402     5A    -11.209807     6A    -11.209026
       7A    -11.207091     8A    -11.206465     9A     -1.095067
      10A     -1.056549    11A     -1.006702    12A     -0.951963
      13A     -0.884754    14A     -0.830362    15A     -0.795375
      16A     -0.745286    17A     -0.647031    18A     -0.637420
      19A     -0.602347    20A     -0.595013    21A     -0.575808
      22A     -0.561766    23A     -0.545998    24A     -0.534523
      25A     -0.516359    26A     -0.498701    27A     -0.491643
      28A     -0.476947    29A     -0.467659    30A     -0.457352
      31A     -0.441230    32A     -0.438593    33A     -0.433561

  @DF-RHF Final Energy:  -313.53643532023960

   => Energetics <=

    Nuclear Repulsion Energy =            404.5347262077702339
    One-Electron Energy =               -1224.2081766365331532
    Two-Electron Energy =                 506.1370151085232578
    DFT Exchange-Correlation Energy =       0.0000000000000000
    Empirical Dispersion Energy =           0.0000000000000000
    PCM Polarization Energy =               0.0000000000000000
    EFP Energy =                            0.0000000000000000
    Total Energy =                       -313.5364353202396046
  Basis Set:
    Molecular point group: c1
  Basis Set: AUG-CC-PVTZ
  Basis Set:
  Basis Set:
	 Reference Energy          =    -313.5364353202396046 [Eh]
	 Singles Energy            =      -0.0000000000000000 [Eh]
	 Same-Spin Energy          =      -0.3174044832921025 [Eh]
	 Opposite-Spin Energy      =      -1.1269992050215885 [Eh]
	 Correlation Energy        =      -1.4444036883136910 [Eh]
	 Total Energy              =    -314.9808390085532892 [Eh]

	 ================> DF-SCS-MP2 Energies <==================
	-----------------------------------------------------------
	 SCS Same-Spin Scale       =       0.3333333333333333 [-]
	 SCS Opposite-Spin Scale   =       1.2000000000000000 [-]
	 SCS Same-Spin Energy      =      -0.1058014944307008 [Eh]
	 SCS Opposite-Spin Energy  =      -1.3523990460259061 [Eh]
	 SCS Correlation Energy    =      -1.4582005404566070 [Eh]
	 SCS Total Energy          =    -314.9946358606962349 [Eh]
	-----------------------------------------------------------

  -Total Gradient:
     Atom            X                  Y                   Z
    ------   -----------------  -----------------  -----------------
       1       -0.000001913907     0.000001057681    -0.000000572360
       2       -0.000000008033    -0.000000888341     0.000000274634
       3        0.000000228820     0.000000288429    -0.000000060226
       4        0.000001340465    -0.000000245925     0.000000008398
       5        0.000000092910     0.000001169799     0.000000436296
       6       -0.000000112772    -0.000000634673     0.000000309130
       7        0.000000722978     0.000000490167    -0.000000171745
       8       -0.000000034042     0.000000773715     0.000000239215
       9       -0.000000101903     0.000000448526     0.000000720381
      10       -0.000000714668    -0.000000729305     0.000000237164
      11       -0.000000341509     0.000000468589    -0.000000137787
      12       -0.000001837141    -0.000001772427     0.000000500873
      13        0.000000356673    -0.000000670695    -0.000000252625
      14        0.000000055774     0.000000446185    -0.000000330635
      15        0.000000304375    -0.000000845843     0.000000048525
      16        0.000000397178    -0.000000081948    -0.000000044105
      17        0.000000686370     0.000000252865    -0.000000100327
      18        0.000000100957     0.000000554326     0.000000533015
      19       -0.000000121018    -0.000000124042    -0.000000334968
      20        0.000000660472     0.000000046340     0.000000109856
      21       -0.000001082160    -0.000000414549    -0.000000689268
      22        0.000000319228     0.000000127629    -0.000000354459
      23       -0.000000266290    -0.000000085942     0.000000554421
      24        0.000002066896     0.000000130869    -0.000001058723
      25        0.000000100857    -0.000000043217     0.000000193190
      26       -0.000000900507     0.000000281785    -0.000000057867

  **** Optimization is complete! (in 48 steps) ****
    Final optimized geometry and variables:
    Molecular point group: c1

    Geometry (in Angstrom), charge = 0, multiplicity = 1:

    C            2.551882486305    -0.934920159024    -0.150457551800
    H            2.200215852906    -0.195785796407    -0.867243106554
    H            2.115813358194    -1.896830000975    -0.424804812033
    H            3.633338552539    -1.017487144186    -0.262195176673
    C           -2.751747196089    -0.678421339771    -1.890710176654
    H           -2.726356286953    -0.148582051559    -2.843720731810
    H           -3.793019934189    -0.897118514245    -1.655180028811
    H           -2.231985200788    -1.628008776447    -2.025772061911
    C            2.179928271773    -0.572804220870     1.285289571912
    H            2.630780027003     0.386998629384     1.554630121966
    H            2.631302007282    -1.315419254609     1.946680073844
    C           -2.087400398534     0.146859915365    -0.795340060049
    H           -2.626232809512     1.089492849473    -0.661578797308
    H           -2.158174680426    -0.388350901902     0.154118194291
    C            0.672621875107    -0.513893585196     1.566452489975
    H            0.500649497369    -0.782052260400     2.611526695464
    H            0.162045230593    -1.278253157224     0.972399808043
    C            0.027123704881     0.853935155017     1.337890342401
    H            0.535214961891     1.582470486309     1.976674178769
    H           -1.007341812361     0.816404024312     1.688258793760
    C            0.047523146905     1.369776725746    -0.101144147514
    H           -0.458347457160     2.339783532156    -0.125926663488
    H            1.078478437237     1.560417539213    -0.408472466983
    C           -0.626314941285     0.444422709075    -1.112717566283
    H           -0.568316218325     0.903574669873    -2.104279971688
    H           -0.080198204988    -0.500005749528    -1.183293564839

*** Psi4 exiting successfully. Buy a developer a beer!
