                              Psi4 1.0.0 Driver

  ==> Input File <==

--------------------------------------------------------------------------
memory 60 Gb

molecule molecule_76_psi {
0 1
C            2.043370734008     0.739364904400    -1.376062374840
H            0.996335750574     0.559565723437    -1.617476005745
H            2.598850560967     0.750667843789    -2.313926087328
H            2.117836290001     1.732087764855    -0.929295894049
C           -2.043339218208    -0.739411458255    -1.376062380825
H           -2.598788929075    -0.750746931607    -2.313942608442
H           -2.117811884661    -1.732120093503    -0.929268258353
H           -0.996299052692    -0.559612177481    -1.617447879019
C            2.591065206398    -0.325412276183    -0.432409201324
H            3.667069036550    -0.176516789717    -0.313955074575
H            2.465328122597    -1.311211878788    -0.888945194627
C           -2.591064684157     0.325392224266    -0.432457606719
H           -2.465327874706     1.311175080191    -0.889025764591
H           -3.667067635733     0.176491422306    -0.314017364235
C            1.944352985504    -0.342489369399     0.952345853848
H            2.128457114704     0.615044802150     1.450627860228
H            2.454090857780    -1.101076708347     1.550539216080
C            0.436559590752    -0.628069573363     0.950302595188
H            0.175316175659    -1.202654860746     1.843034909802
H            0.189822165011    -1.267376821512     0.098999216800
C           -0.436577907427     0.628105423882     0.950261085940
H           -0.175344770200     1.202743694369     1.842961940926
H           -0.189831736182     1.267361896922     0.098923025643
C           -1.944370364282     0.342523366212     0.952304334092
H           -2.128477046108    -0.614991188681     1.450618389346
H           -2.454113596304     1.101130625663     1.550464827780
}

set globals {
  reference rhf
  g_convergence gau_verytight
  basis aug-cc-pvtz
  freeze_core true
  scf_type df
  mp_type df
}
optimize('mp2')
--------------------------------------------------------------------------

    Molecular point group: c1
  Charge       = 0
  Multiplicity = 1
  Basis Set: AUG-CC-PVTZ
  Basis Set:
  @DF-RHF Final Energy:  -313.53378390885524
    Total Energy =                       -313.5337839088551846
  Basis Set:
    Molecular point group: c1
  Basis Set: AUG-CC-PVTZ
  Basis Set:
  Basis Set:
	 Reference Energy          =    -313.5337839088552414 [Eh]
	 Singles Energy            =      -0.0000000000000001 [Eh]
	 Same-Spin Energy          =      -0.3171247935132294 [Eh]
	 Opposite-Spin Energy      =      -1.1270264636527958 [Eh]
	 Correlation Energy        =      -1.4441512571660251 [Eh]
	 Total Energy              =    -314.9779351660212683 [Eh]
	 SCS Total Energy          =    -314.9919239297429954 [Eh]
  Basis Set: AUG-CC-PVTZ
  Basis Set:
  @DF-RHF Final Energy:  -313.53378348478145
    Total Energy =                       -313.5337834847816225
  Basis Set:
  Basis Set: AUG-CC-PVTZ
  Basis Set:
  @DF-RHF Final Energy:  -313.53378392704099
    Total Energy =                       -313.5337839270412132
  @DF-RHF Final Energy:  -313.53378395129431
    Total Energy =                       -313.5337839512943106
  @DF-RHF Final Energy:  -313.53378391796258
    Total Energy =                       -313.5337839179626940
  @DF-RHF Final Energy:  -313.53378405458852
    Total Energy =                       -313.5337840545884092
  @DF-RHF Final Energy:  -313.53378391363287
    Total Energy =                       -313.5337839136327602
  @DF-RHF Final Energy:  -313.53378392792121
    Total Energy =                       -313.5337839279216041
  @DF-RHF Final Energy:  -313.53378391225277
    Total Energy =                       -313.5337839122524883
  @DF-RHF Final Energy:  -313.53378393761335
    Total Energy =                       -313.5337839376131228
  @DF-RHF Final Energy:  -313.53378390235559
    Total Energy =                       -313.5337839023556512
  @DF-RHF Final Energy:  -313.53378393167975
    Total Energy =                       -313.5337839316795794
  @DF-RHF Final Energy:  -313.53378392790916
    Total Energy =                       -313.5337839279089849
	 Singles Energy            =      -0.0000000000000000 [Eh]
	 Same-Spin Energy          =      -0.3171248003669137 [Eh]
	 Opposite-Spin Energy      =      -1.1270264374164740 [Eh]
	 Correlation Energy        =      -1.4441512377833878 [Eh]
	 Total Energy              =    -314.9779351656925428 [Eh]
	 SCS Total Energy          =    -314.9919239195979230 [Eh]
  Charge       = 0
  Multiplicity = 1
  Basis Set: AUG-CC-PVTZ
  Basis Set:

    Orbital Energies (a.u.)
    -----------------------

    Doubly Occupied:

       1A    -11.213235     2A    -11.213235     3A    -11.210209
       4A    -11.210165     5A    -11.209325     6A    -11.208758
       7A    -11.207235     8A    -11.207234     9A     -1.092098
      10A     -1.059342    11A     -1.005102    12A     -0.949045
      13A     -0.893006    14A     -0.826122    15A     -0.772339
      16A     -0.770612    17A     -0.647593    18A     -0.621031
      19A     -0.615175    20A     -0.598096    21A     -0.571358
      22A     -0.563688    23A     -0.543821    24A     -0.524754
      25A     -0.518552    26A     -0.509780    27A     -0.489280
      28A     -0.477607    29A     -0.460871    30A     -0.459975
      31A     -0.447360    32A     -0.435324    33A     -0.429858

  @DF-RHF Final Energy:  -313.53378393125678

   => Energetics <=

    Nuclear Repulsion Energy =            403.9331310247111446
    One-Electron Energy =               -1223.0114631528249447
    Two-Electron Energy =                 505.5445481968571357
    DFT Exchange-Correlation Energy =       0.0000000000000000
    Empirical Dispersion Energy =           0.0000000000000000
    PCM Polarization Energy =               0.0000000000000000
    EFP Energy =                            0.0000000000000000
    Total Energy =                       -313.5337839312566075
  Basis Set:
    Molecular point group: c1
  Basis Set: AUG-CC-PVTZ
  Basis Set:
  Basis Set:
	 Reference Energy          =    -313.5337839312567780 [Eh]
	 Singles Energy            =      -0.0000000000000003 [Eh]
	 Same-Spin Energy          =      -0.3171247942257073 [Eh]
	 Opposite-Spin Energy      =      -1.1270264412561266 [Eh]
	 Correlation Energy        =      -1.4441512354818342 [Eh]
	 Total Energy              =    -314.9779351667386322 [Eh]

	 ================> DF-SCS-MP2 Energies <==================
	-----------------------------------------------------------
	 SCS Same-Spin Scale       =       0.3333333333333333 [-]
	 SCS Opposite-Spin Scale   =       1.2000000000000000 [-]
	 SCS Same-Spin Energy      =      -0.1057082647419024 [Eh]
	 SCS Opposite-Spin Energy  =      -1.3524317295073518 [Eh]
	 SCS Correlation Energy    =      -1.4581399942492546 [Eh]
	 SCS Total Energy          =    -314.9919239255060575 [Eh]
	-----------------------------------------------------------

  -Total Gradient:
     Atom            X                  Y                   Z
    ------   -----------------  -----------------  -----------------
       1        0.000000099239    -0.000000160177     0.000000216723
       2       -0.000000300980     0.000000025276    -0.000000150499
       3        0.000000130337    -0.000000034826    -0.000000125886
       4       -0.000000010137     0.000000232397     0.000000100380
       5        0.000000011325     0.000000072524     0.000000164023
       6       -0.000000067266     0.000000012328    -0.000000085955
       7        0.000000014234    -0.000000113272     0.000000052746
       8        0.000000126684     0.000000002048    -0.000000105454
       9       -0.000000030225     0.000000177373    -0.000000021701
      10        0.000000159256     0.000000036802     0.000000019984
      11       -0.000000050344    -0.000000294143    -0.000000148614
      12       -0.000000037825    -0.000000029873     0.000000015910
      13        0.000000017996     0.000000040023    -0.000000024126
      14       -0.000000008165    -0.000000007461     0.000000011251
      15        0.000000080036    -0.000000099217    -0.000000177124
      16        0.000000137907     0.000000316113     0.000000200437
      17        0.000000037948    -0.000000130498     0.000000068610
      18        0.000000195041     0.000000534696     0.000000033818
      19       -0.000000092415    -0.000000140458     0.000000414604
      20       -0.000000148189    -0.000000441635    -0.000000417615
      21       -0.000000329615    -0.000000489469    -0.000000043277
      22        0.000000028061     0.000000130716     0.000000334005
      23        0.000000091214     0.000000320847    -0.000000309267
      24       -0.000000002974     0.000000104485    -0.000000159006
      25       -0.000000110073    -0.000000126639     0.000000089905
      26        0.000000058929     0.000000062040     0.000000046128

  **** Optimization is complete! (in 14 steps) ****
    Final optimized geometry and variables:
    Molecular point group: c1

    Geometry (in Angstrom), charge = 0, multiplicity = 1:

    C            2.043368161892     0.739362801334    -1.376062250879
    H            0.996332224658     0.559564708879    -1.617471446609
    H            2.598844094717     0.750663600427    -2.313928017701
    H            2.117835927770     1.732086318932    -0.929298151231
    C           -2.043336877140    -0.739408165091    -1.376065994493
    H           -2.598788741248    -0.750744971783    -2.313944876167
    H           -2.117803965169    -1.732117710837    -0.929272726064
    H           -0.996297873338    -0.559604776249    -1.617453973393
    C            2.591064289024    -0.325412969037    -0.432408846435
    H            3.667067954972    -0.176518449665    -0.313957422982
    H            2.465325774393    -1.311212346141    -0.888943721510
    C           -2.591065196972     0.325391168170    -0.432458193863
    H           -2.465333661200     1.311175828817    -0.889024451626
    H           -3.667067551413     0.176485563481    -0.314016744834
    C            1.944354019273    -0.342489617731     0.952346761685
    H            2.128460484006     0.615043505392     1.450628498501
    H            2.454090517635    -1.101077311648     1.550539539831
    C            0.436560910364    -0.628068371337     0.950305463400
    H            0.175318917204    -1.202652372444     1.843039237021
    H            0.189822398035    -1.267378111944     0.099003970987
    C           -0.436578130914     0.628105378713     0.950261956632
    H           -0.175346421162     1.202745249989     1.842962554726
    H           -0.189831168317     1.267361975273     0.098923568277
    C           -1.944370303482     0.342523141773     0.952303520453
    H           -2.128477570732    -0.614991533328     1.450618336530
    H           -2.454114096792     1.101130745012     1.550463758555

*** Psi4 exiting successfully. Buy a developer a beer!
