                              Psi4 1.0.0 Driver

  ==> Input File <==

--------------------------------------------------------------------------
memory 60 Gb

molecule molecule_26_psi {
0 1
C           -3.580299676914     0.522391477116    -0.508754027996
H           -4.660490580677     0.636232362795    -0.420774825529
H           -3.364946172893     0.126248944869    -1.502699327358
H           -3.137334855783     1.515353692745    -0.442595819910
C            3.729096424566     0.637298710358    -0.459155717873
H            3.506810997112     1.313563972066    -1.286356810899
H            4.792873871360     0.403511581709    -0.495490018982
H            3.542602677469     1.174097188929     0.469956284374
C           -3.033817021873    -0.407520868853     0.569389410161
H           -3.576336723505    -1.354918699641     0.535227839633
H           -3.222841877712     0.023827224761     1.556335994860
C            2.884486935727    -0.628574472947    -0.559730170640
H            3.180523260720    -1.184318559315    -1.452232615652
H            3.094326830168    -1.279623574908     0.293544703648
C           -1.539001821091    -0.683308837385     0.422432464350
H           -1.360453684467    -1.144687012955    -0.552523972990
H           -1.231163533562    -1.415311467793     1.175703132904
C           -0.675121162046     0.565377594375     0.575487450526
H           -0.983237292143     1.091994703362     1.484338515076
H           -0.857372784148     1.250008181624    -0.257304280443
C            0.821765168106     0.269673258429     0.651273239150
H            1.352855008867     1.199703341797     0.864944969284
H            1.015272672787    -0.402229526318     1.494513652978
C            1.382459371058    -0.356275823671    -0.621532348645
H            0.862610450103    -1.295353623938    -0.822399253657
H            1.170511183009     0.305627631456    -1.468644706799
}

set globals {
  reference rhf
  g_convergence gau_verytight
  basis aug-cc-pvtz
  freeze_core true
  scf_type df
  mp_type df
}
optimize('mp2')
--------------------------------------------------------------------------

    Molecular point group: c1
  Charge       = 0
  Multiplicity = 1
  Basis Set: AUG-CC-PVTZ
  Basis Set:
  @DF-RHF Final Energy:  -313.54192757975733
    Total Energy =                       -313.5419275797573277
  Basis Set:
    Molecular point group: c1
  Basis Set: AUG-CC-PVTZ
  Basis Set:
  Basis Set:
	 Reference Energy          =    -313.5419275797573277 [Eh]
	 Singles Energy            =      -0.0000000000000005 [Eh]
	 Same-Spin Energy          =      -0.3159579115606933 [Eh]
	 Opposite-Spin Energy      =      -1.1249396489536787 [Eh]
	 Correlation Energy        =      -1.4408975605143723 [Eh]
	 Total Energy              =    -314.9828251402717001 [Eh]
	 SCS Total Energy          =    -314.9971744623553036 [Eh]
  Basis Set: AUG-CC-PVTZ
  Basis Set:
  @DF-RHF Final Energy:  -313.54192742629238
    Total Energy =                       -313.5419274262923182
  Basis Set:
  Basis Set: AUG-CC-PVTZ
  Basis Set:
  @DF-RHF Final Energy:  -313.54192760678598
    Total Energy =                       -313.5419276067860892
  @DF-RHF Final Energy:  -313.54192755006875
    Total Energy =                       -313.5419275500689196
  @DF-RHF Final Energy:  -313.54192754241382
    Total Energy =                       -313.5419275424137027
  @DF-RHF Final Energy:  -313.54192739365800
    Total Energy =                       -313.5419273936580566
  @DF-RHF Final Energy:  -313.54192754804160
    Total Energy =                       -313.5419275480419401
  @DF-RHF Final Energy:  -313.54192757023390
    Total Energy =                       -313.5419275702337814
  @DF-RHF Final Energy:  -313.54192757875745
    Total Energy =                       -313.5419275787573383
  @DF-RHF Final Energy:  -313.54192755612382
    Total Energy =                       -313.5419275561238805
  @DF-RHF Final Energy:  -313.54192758942997
    Total Energy =                       -313.5419275894302018
  @DF-RHF Final Energy:  -313.54192749057961
    Total Energy =                       -313.5419274905794964
	 Singles Energy            =      -0.0000000000000000 [Eh]
	 Same-Spin Energy          =      -0.3159579582924798 [Eh]
	 Opposite-Spin Energy      =      -1.1249396906399585 [Eh]
	 Correlation Energy        =      -1.4408976489324383 [Eh]
	 Total Energy              =    -314.9828251395120446 [Eh]
	 SCS Total Energy          =    -314.9971744387783588 [Eh]
  Charge       = 0
  Multiplicity = 1
  Basis Set: AUG-CC-PVTZ
  Basis Set:

    Orbital Energies (a.u.)
    -----------------------

    Doubly Occupied:

       1A    -11.212659     2A    -11.212549     3A    -11.210165
       4A    -11.209786     5A    -11.209424     6A    -11.209115
       7A    -11.206337     8A    -11.206308     9A     -1.094021
      10A     -1.060686    11A     -1.008394    12A     -0.941709
      13A     -0.891635    14A     -0.828390    15A     -0.786130
      16A     -0.757312    17A     -0.638117    18A     -0.625258
      19A     -0.618956    20A     -0.593218    21A     -0.584174
      22A     -0.562880    23A     -0.542009    24A     -0.526008
      25A     -0.518087    26A     -0.502714    27A     -0.486334
      28A     -0.471963    29A     -0.466284    30A     -0.460766
      31A     -0.448928    32A     -0.436471    33A     -0.434736

  @DF-RHF Final Energy:  -313.54192756606187

   => Energetics <=

    Nuclear Repulsion Energy =            389.4585932539799842
    One-Electron Energy =               -1194.0779985511551331
    Two-Electron Energy =                 491.0774777311130492
    DFT Exchange-Correlation Energy =       0.0000000000000000
    Empirical Dispersion Energy =           0.0000000000000000
    PCM Polarization Energy =               0.0000000000000000
    EFP Energy =                            0.0000000000000000
    Total Energy =                       -313.5419275660620997
  Basis Set:
    Molecular point group: c1
  Basis Set: AUG-CC-PVTZ
  Basis Set:
  Basis Set:
	 Reference Energy          =    -313.5419275660618723 [Eh]
	 Singles Energy            =      -0.0000000000000002 [Eh]
	 Same-Spin Energy          =      -0.3159579143396479 [Eh]
	 Opposite-Spin Energy      =      -1.1249396600377137 [Eh]
	 Correlation Energy        =      -1.4408975743773620 [Eh]
	 Total Energy              =    -314.9828251404392176 [Eh]

	 ================> DF-SCS-MP2 Energies <==================
	-----------------------------------------------------------
	 SCS Same-Spin Scale       =       0.3333333333333333 [-]
	 SCS Opposite-Spin Scale   =       1.2000000000000000 [-]
	 SCS Same-Spin Energy      =      -0.1053193047798826 [Eh]
	 SCS Opposite-Spin Energy  =      -1.3499275920452565 [Eh]
	 SCS Correlation Energy    =      -1.4552468968251393 [Eh]
	 SCS Total Energy          =    -314.9971744628870169 [Eh]
	-----------------------------------------------------------

  -Total Gradient:
     Atom            X                  Y                   Z
    ------   -----------------  -----------------  -----------------
       1        0.000000015199    -0.000000146337     0.000000138208
       2       -0.000000196296    -0.000000000057     0.000000038956
       3        0.000000032095    -0.000000044572    -0.000000185069
       4        0.000000061279     0.000000168573    -0.000000008559
       5       -0.000000063380    -0.000000226232    -0.000000045375
       6       -0.000000038116     0.000000193134    -0.000000173327
       7        0.000000213024    -0.000000060917    -0.000000023643
       8       -0.000000025407     0.000000130176     0.000000194157
       9        0.000000252064     0.000000199147    -0.000000259795
      10       -0.000000121364    -0.000000191506    -0.000000026168
      11       -0.000000066727     0.000000117889     0.000000249648
      12       -0.000000175279     0.000000192597     0.000000014378
      13        0.000000053790    -0.000000080941    -0.000000153870
      14        0.000000061567    -0.000000128876     0.000000179252
      15       -0.000000191343     0.000000016841     0.000000118561
      16        0.000000121020    -0.000000059409    -0.000000168307
      17        0.000000049276    -0.000000097790     0.000000106660
      18        0.000000265177     0.000000029548    -0.000000016429
      19        0.000000001002     0.000000030566     0.000000013778
      20        0.000000013032    -0.000000013420     0.000000021624
      21       -0.000000350003     0.000000011750    -0.000000041107
      22       -0.000000003887     0.000000009601    -0.000000016145
      23       -0.000000012128    -0.000000018076     0.000000068060
      24        0.000000203791    -0.000000019627     0.000000057667
      25       -0.000000026409    -0.000000045409    -0.000000042156
      26       -0.000000071977     0.000000033349    -0.000000040998

  **** Optimization is complete! (in 13 steps) ****
    Final optimized geometry and variables:
    Molecular point group: c1

    Geometry (in Angstrom), charge = 0, multiplicity = 1:

    C           -3.580297067834     0.522408761012    -0.508742889401
    H           -4.660486275540     0.636260316786    -0.420757820504
    H           -3.364951973474     0.126275637921    -1.502693654621
    H           -3.137320959222     1.515365341224    -0.442574909341
    C            3.729092777635     0.637311552765    -0.459162496380
    H            3.506799818631     1.313563840892    -1.286372492979
    H            4.792872484945     0.403533687837    -0.495495427319
    H            3.542595540689     1.174120904659     0.469942683144
    C           -3.033819819786    -0.407522167188     0.569387141253
    H           -3.576344830513    -1.354916487740     0.535214469921
    H           -3.222840144263     0.023814504440     1.556339404953
    C            2.884495497823    -0.628571156324    -0.559718590358
    H            3.180538199939    -1.184325654861    -1.452212776466
    H            3.094340995615    -1.279605838670     0.293566165114
    C           -1.539006619792    -0.683314940678     0.422424276484
    H           -1.360464385890    -1.144690973962    -0.552534012072
    H           -1.231167540251    -1.415320195416     1.175692231868
    C           -0.675123893485     0.565370184424     0.575476949186
    H           -0.983243209914     1.091991091067     1.484324654740
    H           -0.857371656480     1.249998367551    -0.257317981392
    C            0.821761875285     0.269664517594     0.651272670739
    H            1.352850209860     1.199695521905     0.864944216214
    H            1.015264564868    -0.402234827236     1.494517170463
    C            1.382465405856    -0.356288360369    -0.621527169057
    H            0.862627050769    -1.295373430316    -0.822387738663
    H            1.170512293128     0.305606062844    -1.468645881602

*** Psi4 exiting successfully. Buy a developer a beer!
