                              Psi4 1.0.0 Driver

  ==> Input File <==

--------------------------------------------------------------------------
memory 60 Gb

molecule molecule_08_psi {
0 1
C            3.501549419731     0.741734291610     0.121007237957
H            3.160860270906     1.739181047691     0.402290541809
H            4.252162066137     0.852460970674    -0.661195517954
H            3.986244441711     0.299398403209     0.992232707539
C           -3.312883356817    -0.001830681034     0.420119239156
H           -3.021807584304    -1.042387103939     0.562508418538
H           -3.880645140840     0.060232517999    -0.509918174437
H           -3.979678259868     0.269079891666     1.238371241427
C            2.329650775820    -0.116505235793    -0.339733656450
H            2.687719629429    -1.107585069683    -0.633339487901
H            1.883291645299     0.328599402772    -1.231694967188
C           -2.097475441449     0.917593712440     0.372320973186
H           -2.432212905712     1.956606276348     0.333203695033
H           -1.526053568546     0.816373177714     1.298053797844
C            1.271529018814    -0.269408723848     0.746657450842
H            0.881163446009     0.719337091852     1.005659097601
H            1.750478253578    -0.653071029319     1.652385605012
C            0.123634211508    -1.201424967444     0.362181281658
H           -0.571458762278    -1.278204426116     1.202485423438
H            0.523424674032    -2.207389796060     0.204614555764
C           -0.638295596457    -0.773694778011    -0.892991549703
H            0.015289003354    -0.858685483650    -1.764239756927
H           -1.456961523922    -1.476459958206    -1.064853570001
C           -1.190882872890     0.650511198466    -0.828532828418
H           -0.361902021926     1.363212331868    -0.817039522577
H           -1.753054986344     0.850663532398    -1.745492924479
}

set globals {
  reference rhf
  g_convergence gau_verytight
  basis aug-cc-pvtz
  freeze_core true
  scf_type df
  mp_type df
}
optimize('mp2')
--------------------------------------------------------------------------

    Molecular point group: c1
  Charge       = 0
  Multiplicity = 1
  Basis Set: AUG-CC-PVTZ
  Basis Set:
  @DF-RHF Final Energy:  -313.53964991395895
    Total Energy =                       -313.5396499139592379
  Basis Set:
    Molecular point group: c1
  Basis Set: AUG-CC-PVTZ
  Basis Set:
  Basis Set:
	 Reference Energy          =    -313.5396499139589537 [Eh]
	 Singles Energy            =      -0.0000000000000001 [Eh]
	 Same-Spin Energy          =      -0.3175960907842502 [Eh]
	 Opposite-Spin Energy      =      -1.1268731099888980 [Eh]
	 Correlation Energy        =      -1.4444692007731481 [Eh]
	 Total Energy              =    -314.9841191147320956 [Eh]
	 SCS Total Energy          =    -314.9977630095403924 [Eh]
  Basis Set: AUG-CC-PVTZ
  Basis Set:
  @DF-RHF Final Energy:  -313.53964984093534
    Total Energy =                       -313.5396498409353967
  Basis Set:
  Basis Set: AUG-CC-PVTZ
  Basis Set:
  @DF-RHF Final Energy:  -313.53964957994390
    Total Energy =                       -313.5396495799437844
  @DF-RHF Final Energy:  -313.53964984683591
    Total Energy =                       -313.5396498468361415
  @DF-RHF Final Energy:  -313.53964980158901
    Total Energy =                       -313.5396498015893485
  @DF-RHF Final Energy:  -313.53964979972079
    Total Energy =                       -313.5396497997209053
  @DF-RHF Final Energy:  -313.53964987707940
    Total Energy =                       -313.5396498770797962
  @DF-RHF Final Energy:  -313.53964971795989
    Total Energy =                       -313.5396497179599464
  @DF-RHF Final Energy:  -313.53964980513786
    Total Energy =                       -313.5396498051378558
  @DF-RHF Final Energy:  -313.53964970736803
    Total Energy =                       -313.5396497073683122
  @DF-RHF Final Energy:  -313.53964982136239
    Total Energy =                       -313.5396498213623886
  @DF-RHF Final Energy:  -313.53964987470118
    Total Energy =                       -313.5396498747013538
  @DF-RHF Final Energy:  -313.53964982246254
    Total Energy =                       -313.5396498224622519
	 Singles Energy            =      -0.0000000000000001 [Eh]
	 Same-Spin Energy          =      -0.3175961122749457 [Eh]
	 Opposite-Spin Energy      =      -1.1268731839348689 [Eh]
	 Correlation Energy        =      -1.4444692962098147 [Eh]
	 Total Energy              =    -314.9841191186723677 [Eh]
	 SCS Total Energy          =    -314.9977630139426878 [Eh]
  Charge       = 0
  Multiplicity = 1
  Basis Set: AUG-CC-PVTZ
  Basis Set:

    Orbital Energies (a.u.)
    -----------------------

    Doubly Occupied:

       1A    -11.212374     2A    -11.212175     3A    -11.210503
       4A    -11.210344     5A    -11.209720     6A    -11.208964
       7A    -11.207236     8A    -11.206874     9A     -1.097168
      10A     -1.057950    11A     -1.005651    12A     -0.946955
      13A     -0.889264    14A     -0.836562    15A     -0.789699
      16A     -0.739839    17A     -0.652547    18A     -0.639025
      19A     -0.611472    20A     -0.581184    21A     -0.577418
      22A     -0.569798    23A     -0.543899    24A     -0.523977
      25A     -0.518188    26A     -0.506676    27A     -0.487088
      28A     -0.474562    29A     -0.468964    30A     -0.462304
      31A     -0.443214    32A     -0.436892    33A     -0.434461

  @DF-RHF Final Energy:  -313.53964986905464

   => Energetics <=

    Nuclear Repulsion Energy =            402.7216108323667640
    One-Electron Energy =               -1220.5766296340570989
    Two-Electron Energy =                 504.3153689326353515
    DFT Exchange-Correlation Energy =       0.0000000000000000
    Empirical Dispersion Energy =           0.0000000000000000
    PCM Polarization Energy =               0.0000000000000000
    EFP Energy =                            0.0000000000000000
    Total Energy =                       -313.5396498690549834
  Basis Set:
    Molecular point group: c1
  Basis Set: AUG-CC-PVTZ
  Basis Set:
  Basis Set:
	 Reference Energy          =    -313.5396498690546423 [Eh]
	 Singles Energy            =      -0.0000000000000002 [Eh]
	 Same-Spin Energy          =      -0.3175961038507470 [Eh]
	 Opposite-Spin Energy      =      -1.1268731448322749 [Eh]
	 Correlation Energy        =      -1.4444692486830222 [Eh]
	 Total Energy              =    -314.9841191177376913 [Eh]

	 ================> DF-SCS-MP2 Energies <==================
	-----------------------------------------------------------
	 SCS Same-Spin Scale       =       0.3333333333333333 [-]
	 SCS Opposite-Spin Scale   =       1.2000000000000000 [-]
	 SCS Same-Spin Energy      =      -0.1058653679502490 [Eh]
	 SCS Opposite-Spin Energy  =      -1.3522477737987297 [Eh]
	 SCS Correlation Energy    =      -1.4581131417489790 [Eh]
	 SCS Total Energy          =    -314.9977630108036237 [Eh]
	-----------------------------------------------------------

  -Total Gradient:
     Atom            X                  Y                   Z
    ------   -----------------  -----------------  -----------------
       1       -0.000000092371     0.000000055074     0.000000073963
       2       -0.000000011965     0.000000018735     0.000000007864
       3        0.000000079488     0.000000009593    -0.000000082043
       4        0.000000057058    -0.000000020627     0.000000082594
       5       -0.000000260672    -0.000000245196    -0.000000004069
       6       -0.000000063229     0.000000279008    -0.000000014242
       7        0.000000206421     0.000000010577     0.000000267689
       8        0.000000144352    -0.000000111023    -0.000000219454
       9        0.000000247948    -0.000000191302     0.000000024548
      10        0.000000070354    -0.000000164097    -0.000000067503
      11       -0.000000139428     0.000000127969    -0.000000061736
      12        0.000000335659     0.000000223942     0.000000407983
      13        0.000000139487    -0.000000319865     0.000000072159
      14       -0.000000334563     0.000000062448    -0.000000510000
      15       -0.000000102960     0.000000091704     0.000000163944
      16       -0.000000003885    -0.000000067420     0.000000014047
      17        0.000000024957     0.000000006992    -0.000000043548
      18       -0.000000345910     0.000000371558     0.000000034653
      19        0.000000076405    -0.000000004794    -0.000000073156
      20        0.000000052135    -0.000000065677    -0.000000005471
      21       -0.000000177047     0.000000144611    -0.000000052501
      22       -0.000000112360    -0.000000020523     0.000000092308
      23        0.000000152774     0.000000055382    -0.000000017570
      24        0.000000424635     0.000000258072    -0.000000354645
      25       -0.000000638735    -0.000000431805    -0.000000013111
      26        0.000000271446    -0.000000073337     0.000000277299

  **** Optimization is complete! (in 14 steps) ****
    Final optimized geometry and variables:
    Molecular point group: c1

    Geometry (in Angstrom), charge = 0, multiplicity = 1:

    C            3.501552120309     0.741730541303     0.121004586240
    H            3.160866879194     1.739176804326     0.402295927168
    H            4.252160691280     0.852460392640    -0.661202334329
    H            3.986251571990     0.299388339954     0.992224876471
    C           -3.312882768088    -0.001834640952     0.420115319232
    H           -3.021804059632    -1.042389644893     0.562507410396
    H           -3.880641450967     0.060225209706    -0.509923920239
    H           -3.979681033624     0.269075325649     1.238364556682
    C            2.329648634031    -0.116503385443    -0.339735231797
    H            2.687713178253    -1.107583607785    -0.633348000346
    H            1.883285787527     0.328607948869    -1.231692169180
    C           -2.097477577630     0.917593477858     0.372318998849
    H           -2.432217459164     1.956604964794     0.333201028463
    H           -1.526057303990     0.816374444624     1.298052285972
    C            1.271530637922    -0.269408118843     0.746660434884
    H            0.881167374458     0.719337545654     1.005667388544
    H            1.750483641911    -0.653074110998     1.652385089609
    C            0.123632409266    -1.201421630135     0.362186165053
    H           -0.571461352248    -1.278198196549     1.202490125462
    H            0.523420909008    -2.207387862231     0.204621193299
    C           -0.638295132379    -0.773692921014    -0.892988593935
    H            0.015291300111    -0.858685588182    -1.764235538964
    H           -1.456960998559    -1.476458116323    -1.064851536593
    C           -1.190882477139     0.650512377085    -0.828532961443
    H           -0.361902976772     1.363214138292    -0.817037621346
    H           -1.753052307529     0.850663270305    -1.745494371783

*** Psi4 exiting successfully. Buy a developer a beer!
