                              Psi4 1.0.0 Driver

  ==> Input File <==

--------------------------------------------------------------------------
memory 30 Gb

molecule molecule_24_psi {
0 1
symmetry c1
    C            3.948806195830    -0.247516670120    -0.272548649203
    H            4.680425039683     0.513759819408    -0.533193613914
    H            3.916019396172    -0.973021221163    -1.083576936207
    H            4.301378998840    -0.763037705282     0.618972136323
    C           -3.077915547941    -1.032751157097    -0.513152006488
    H           -2.174820545246    -1.627967044892    -0.627376454396
    H           -3.365509143435    -0.673160013163    -1.500519110249
    H           -3.865024618372    -1.691743315898    -0.153547015520
    C            2.574813227887     0.352314000278    -0.037569619227
    H            2.260757251837     0.892952748941    -0.929365623395
    H            2.623956534652     1.083781183731     0.771432237220
    C           -2.858839597515     0.130401807196     0.437727558651
    H           -3.809174026035     0.631872378635     0.621646691973
    H           -2.522179006992    -0.244419770449     1.404003194655
    C            1.543497212635    -0.704242777620     0.315511972476
    H            1.923815100644    -1.296952758398     1.150038200211
    H            1.434497442812    -1.391388053239    -0.527854920525
    C            0.178660471508    -0.143676496968     0.681409631187
    H            0.282409294197     0.541490177940     1.527584466761
    H           -0.455780630792    -0.962337079620     1.022495558236
    C           -0.504926730847     0.582442068283    -0.463212031562
    H            0.127878086069     1.400668345753    -0.806352523097
    H           -0.605395620998    -0.101480076955    -1.308533334888
    C           -1.865525407527     1.154256221578    -0.092080815758
    H           -1.725818702303     1.936027477282     0.657223927306
    H           -2.295996269453     1.638730700271    -0.970883751224
}

set globals {
  reference rhf
  g_convergence gau_verytight
  basis aug-cc-pvtz
  freeze_core true
  scf_type df
  mp_type df
}
optimize('mp2')
--------------------------------------------------------------------------

    Molecular point group: c1
  Charge       = 0
  Multiplicity = 1
  Basis Set: AUG-CC-PVTZ
  Basis Set:
  @DF-RHF Final Energy:  -313.54122518060854
    Total Energy =                       -313.5412251806090467
  Basis Set:
    Molecular point group: c1
  Basis Set: AUG-CC-PVTZ
  Basis Set:
  Basis Set:
	 Reference Energy          =    -313.5412251806085351 [Eh]
	 Singles Energy            =      -0.0000000000000002 [Eh]
	 Same-Spin Energy          =      -0.3168211294887418 [Eh]
	 Opposite-Spin Energy      =      -1.1250553090995872 [Eh]
	 Correlation Energy        =      -1.4418764385883291 [Eh]
	 Total Energy              =    -314.9831016191968729 [Eh]
	 SCS Total Energy          =    -314.9968985946909470 [Eh]
  Basis Set: AUG-CC-PVTZ
  Basis Set:
  @DF-RHF Final Energy:  -313.54161066974422
    Total Energy =                       -313.5416106697441023
  Basis Set:
  Basis Set: AUG-CC-PVTZ
  Basis Set:
  @DF-RHF Final Energy:  -313.54153337528572
    Total Energy =                       -313.5415333752858373
  @DF-RHF Final Energy:  -313.54164428929369
    Total Energy =                       -313.5416442892931741
  @DF-RHF Final Energy:  -313.54171422153996
    Total Energy =                       -313.5417142215397348
  @DF-RHF Final Energy:  -313.54170823861983
    Total Energy =                       -313.5417082386200036
  @DF-RHF Final Energy:  -313.54170602820500
    Total Energy =                       -313.5417060282052262
  @DF-RHF Final Energy:  -313.54170531230722
    Total Energy =                       -313.5417053123070446
  @DF-RHF Final Energy:  -313.54170573850098
    Total Energy =                       -313.5417057385011503
  @DF-RHF Final Energy:  -313.54170552147815
    Total Energy =                       -313.5417055214780930
  @DF-RHF Final Energy:  -313.54170567838088
    Total Energy =                       -313.5417056783811063
  @DF-RHF Final Energy:  -313.54170549015146
    Total Energy =                       -313.5417054901515712
  @DF-RHF Final Energy:  -313.54170561731041
    Total Energy =                       -313.5417056173104129
  @DF-RHF Final Energy:  -313.54170573124350
    Total Energy =                       -313.5417057312433826
  @DF-RHF Final Energy:  -313.54170541155815
    Total Energy =                       -313.5417054115581550
  @DF-RHF Final Energy:  -313.54170542436930
    Total Energy =                       -313.5417054243694110
  @DF-RHF Final Energy:  -313.54170568365879
    Total Energy =                       -313.5417056836587335
  @DF-RHF Final Energy:  -313.54170574127153
    Total Energy =                       -313.5417057412712438
  @DF-RHF Final Energy:  -313.54170565916712
    Total Energy =                       -313.5417056591671781
  @DF-RHF Final Energy:  -313.54170549458541
    Total Energy =                       -313.5417054945855853
  @DF-RHF Final Energy:  -313.54170557841428
    Total Energy =                       -313.5417055784142235
  @DF-RHF Final Energy:  -313.54170558537135
    Total Energy =                       -313.5417055853716306
  @DF-RHF Final Energy:  -313.54170565112850
    Total Energy =                       -313.5417056511281544
  @DF-RHF Final Energy:  -313.54170568786395
    Total Energy =                       -313.5417056878642938
  @DF-RHF Final Energy:  -313.54170545836723
    Total Energy =                       -313.5417054583672325
  @DF-RHF Final Energy:  -313.54170552106370
    Total Energy =                       -313.5417055210639319
  @DF-RHF Final Energy:  -313.54170560876298
    Total Energy =                       -313.5417056087626975
	 Singles Energy            =      -0.0000000000000000 [Eh]
	 Same-Spin Energy          =      -0.3163419311280132 [Eh]
	 Opposite-Spin Energy      =      -1.1253330202308729 [Eh]
	 Correlation Energy        =      -1.4416749513588862 [Eh]
	 Total Energy              =    -314.9833805601218728 [Eh]
	 SCS Total Energy          =    -314.9975525434160204 [Eh]
  Charge       = 0
  Multiplicity = 1
  Basis Set: AUG-CC-PVTZ
  Basis Set:

    Orbital Energies (a.u.)
    -----------------------

    Doubly Occupied:

       1A    -11.211873     2A    -11.211844     3A    -11.210680
       4A    -11.210588     5A    -11.209888     6A    -11.208700
       7A    -11.206923     8A    -11.206860     9A     -1.094716
      10A     -1.060572    11A     -1.006391    12A     -0.949042
      13A     -0.881544    14A     -0.836478    15A     -0.787418
      16A     -0.751834    17A     -0.640057    18A     -0.632004
      19A     -0.624163    20A     -0.584009    21A     -0.572969
      22A     -0.565331    23A     -0.548465    24A     -0.528229
      25A     -0.518748    26A     -0.501699    27A     -0.485478
      28A     -0.473111    29A     -0.468073    30A     -0.458438
      31A     -0.450276    32A     -0.437794    33A     -0.433337

  @DF-RHF Final Energy:  -313.54170564034280

   => Energetics <=

    Nuclear Repulsion Energy =            392.4550647374162509
    One-Electron Energy =               -1200.0584828875839776
    Two-Electron Energy =                 494.0617125098249289
    DFT Exchange-Correlation Energy =       0.0000000000000000
    Empirical Dispersion Energy =           0.0000000000000000
    PCM Polarization Energy =               0.0000000000000000
    EFP Energy =                            0.0000000000000000
    Total Energy =                       -313.5417056403427978
  Basis Set:
    Molecular point group: c1
  Basis Set: AUG-CC-PVTZ
  Basis Set:
  Basis Set:
	 Reference Energy          =    -313.5417056403427978 [Eh]
	 Singles Energy            =      -0.0000000000000002 [Eh]
	 Same-Spin Energy          =      -0.3163419313228402 [Eh]
	 Opposite-Spin Energy      =      -1.1253329866851680 [Eh]
	 Correlation Energy        =      -1.4416749180080084 [Eh]
	 Total Energy              =    -314.9833805583508024 [Eh]

	 ================> DF-SCS-MP2 Energies <==================
	-----------------------------------------------------------
	 SCS Same-Spin Scale       =       0.3333333333333333 [-]
	 SCS Opposite-Spin Scale   =       1.2000000000000000 [-]
	 SCS Same-Spin Energy      =      -0.1054473104409467 [Eh]
	 SCS Opposite-Spin Energy  =      -1.3503995840222016 [Eh]
	 SCS Correlation Energy    =      -1.4558468944631486 [Eh]
	 SCS Total Energy          =    -314.9975525348059477 [Eh]
	-----------------------------------------------------------

  -Total Gradient:
     Atom            X                  Y                   Z
    ------   -----------------  -----------------  -----------------
       1        0.000000143114    -0.000000095207    -0.000000034512
       2       -0.000000107048    -0.000000113163     0.000000034651
       3       -0.000000000673     0.000000128519     0.000000133081
       4       -0.000000084186     0.000000106491    -0.000000144972
       5       -0.000000018097    -0.000000167450    -0.000000127307
       6       -0.000000132345     0.000000079282     0.000000032784
       7        0.000000025763    -0.000000034730     0.000000120774
       8        0.000000089861     0.000000069585    -0.000000052276
       9       -0.000000154767     0.000000304212    -0.000000019990
      10        0.000000083395    -0.000000178965     0.000000208664
      11       -0.000000088084    -0.000000268344    -0.000000226245
      12       -0.000000108888     0.000000016679     0.000000209463
      13        0.000000078981    -0.000000017087     0.000000005308
      14       -0.000000032321     0.000000051818    -0.000000130055
      15        0.000000110324    -0.000000342035    -0.000000043133
      16       -0.000000149806     0.000000161564    -0.000000260008
      17        0.000000041385     0.000000330494     0.000000340815
      18       -0.000000138916    -0.000000097775     0.000000346164
      19       -0.000000014637    -0.000000205640    -0.000000356141
      20        0.000000261335     0.000000229453    -0.000000124428
      21        0.000000293171     0.000000004532    -0.000000203876
      22       -0.000000164155    -0.000000156908     0.000000042718
      23        0.000000113285     0.000000192508     0.000000285680
      24       -0.000000063324     0.000000154242    -0.000000056771
      25       -0.000000014218    -0.000000078578    -0.000000083500
      26        0.000000030852    -0.000000073499     0.000000103109

  **** Optimization is complete! (in 28 steps) ****
    Final optimized geometry and variables:
    Molecular point group: c1

    Geometry (in Angstrom), charge = 0, multiplicity = 1:

    C            3.976760701458    -0.230500672874    -0.262666420920
    H            4.712189849822     0.535734999980    -0.506580085315
    H            3.941450243475    -0.937475447707    -1.092592584712
    H            4.331491924972    -0.769399272363     0.616759800383
    C           -3.126181945047    -1.036639337686    -0.533504236980
    H           -2.229186065066    -1.640433072381    -0.671693788128
    H           -3.431233473756    -0.666216621440    -1.513809872175
    H           -3.912617088268    -1.694355049101    -0.164163368805
    C            2.599635644630     0.371115620862    -0.009096984611
    H            2.283139755198     0.932908630395    -0.889696864197
    H            2.654949803837     1.087850524443     0.815353246105
    C           -2.878439442869     0.120234187868     0.427893728147
    H           -3.821916198157     0.633339054421     0.626758092661
    H           -2.536490188662    -0.268530726258     1.389279471712
    C            1.564040323149    -0.695397726020     0.329918364053
    H            1.939907737682    -1.289557038138     1.168165755921
    H            1.466741149843    -1.383617207858    -0.516524309247
    C            0.186982101282    -0.139688747808     0.687181136802
    H            0.284831726588     0.560850398181     1.523836602854
    H           -0.440867935698    -0.960104257866     1.043170048236
    C           -0.508342767261     0.560737282256    -0.475067712631
    H            0.120926696909     1.373776944766    -0.843038280950
    H           -0.612136672848    -0.144276378079    -1.305194068022
    C           -1.874460107608     1.140711382409    -0.108016316756
    H           -1.734020476026     1.928676569354     0.637578810219
    H           -2.302685673345     1.622402793014    -0.992029923356

*** Psi4 exiting successfully. Buy a developer a beer!
