                              Psi4 1.0.0 Driver

  ==> Input File <==

--------------------------------------------------------------------------
memory 60 Gb

molecule molecule_11_psi {
0 1
C            3.731415272124     0.795666718202     0.148697527611
H            3.728341097226     0.890406514968     1.235957590068
H            3.154032091995     1.624004326051    -0.259863628030
H            4.759552633246     0.910023867244    -0.193890166615
C           -3.731411513454    -0.795670481943    -0.148699622672
H           -4.759548715894    -0.910031995002     0.193887294235
H           -3.154025472195    -1.624006673724     0.259860551641
H           -3.728336296367    -0.890408532367    -1.235959869556
C            3.156353296747    -0.552009530083    -0.274132858107
H            3.821456453430    -1.348375337140     0.067131201236
H            3.132232560020    -0.614753512007    -1.365583205154
C           -3.156354925701     0.552007266088     0.274133371115
H           -3.821460514666     1.348371281275    -0.067130370729
H           -3.132235641933     0.614749695265     1.365583979446
C            1.753304467039    -0.807999474368     0.271407696566
H            1.778464426633    -0.763548593947     1.365240878144
H            1.445508296360    -1.824406752779     0.009538856674
C            0.701989239289     0.167973277390    -0.244282839563
H            0.713896938157     0.163676893279    -1.339582241515
H            0.950223305804     1.186278734929     0.065720351337
C           -0.701989739032    -0.167970129081     0.244281970407
H           -0.950224109666    -1.186275227918    -0.065722967703
H           -0.713896384053    -0.163676050881     1.339581534669
C           -1.753306308796     0.808002823975    -0.271405138182
H           -1.445512662354     1.824409994676    -0.009532515556
H           -1.778465484062     0.763555769719    -1.365238548712
}

set globals {
  reference rhf
  g_convergence gau_verytight
  basis aug-cc-pvtz
  freeze_core true
  scf_type df
  mp_type df
}
optimize('mp2')
--------------------------------------------------------------------------

    Molecular point group: c1
  Charge       = 0
  Multiplicity = 1
  Basis Set: AUG-CC-PVTZ
  Basis Set:
  @DF-RHF Final Energy:  -313.54412408238909
    Total Energy =                       -313.5441240823890325
  Basis Set:
    Molecular point group: c1
  Basis Set: AUG-CC-PVTZ
  Basis Set:
  Basis Set:
	 Reference Energy          =    -313.5441240823890894 [Eh]
	 Singles Energy            =      -0.0000000000000001 [Eh]
	 Same-Spin Energy          =      -0.3154068485705609 [Eh]
	 Opposite-Spin Energy      =      -1.1241423779884678 [Eh]
	 Correlation Energy        =      -1.4395492265590288 [Eh]
	 Total Energy              =    -314.9836733089481413 [Eh]
	 SCS Total Energy          =    -314.9982305521654098 [Eh]
  Basis Set: AUG-CC-PVTZ
  Basis Set:
  @DF-RHF Final Energy:  -313.54412391698651
    Total Energy =                       -313.5441239169864502
  Basis Set:
  Basis Set: AUG-CC-PVTZ
  Basis Set:
  @DF-RHF Final Energy:  -313.54412404955582
    Total Energy =                       -313.5441240495556485
  @DF-RHF Final Energy:  -313.54412405446959
    Total Energy =                       -313.5441240544694210
  @DF-RHF Final Energy:  -313.54412398399967
    Total Energy =                       -313.5441239839989862
  @DF-RHF Final Energy:  -313.54412391622009
    Total Energy =                       -313.5441239162198599
  @DF-RHF Final Energy:  -313.54412399140301
    Total Energy =                       -313.5441239914034099
  @DF-RHF Final Energy:  -313.54412404919827
    Total Energy =                       -313.5441240491981034
  @DF-RHF Final Energy:  -313.54412398230647
    Total Energy =                       -313.5441239823062460
  @DF-RHF Final Energy:  -313.54412406530912
    Total Energy =                       -313.5441240653091199
  @DF-RHF Final Energy:  -313.54412409509331
    Total Energy =                       -313.5441240950934230
	 Singles Energy            =      -0.0000000000000001 [Eh]
	 Same-Spin Energy          =      -0.3154068365822524 [Eh]
	 Opposite-Spin Energy      =      -1.1241423801753629 [Eh]
	 Correlation Energy        =      -1.4395492167576154 [Eh]
	 Total Energy              =    -314.9836733118509073 [Eh]
	 SCS Total Energy          =    -314.9982305634978275 [Eh]
  Charge       = 0
  Multiplicity = 1
  Basis Set: AUG-CC-PVTZ
  Basis Set:

    Orbital Energies (a.u.)
    -----------------------

    Doubly Occupied:

       1A    -11.212729     2A    -11.212729     3A    -11.210326
       4A    -11.210270     5A    -11.209484     6A    -11.208911
       7A    -11.206440     8A    -11.206439     9A     -1.093380
      10A     -1.062096    11A     -1.009283    12A     -0.945072
      13A     -0.886483    14A     -0.828593    15A     -0.773681
      16A     -0.770856    17A     -0.649980    18A     -0.622170
      19A     -0.610003    20A     -0.602344    21A     -0.579866
      22A     -0.554605    23A     -0.548804    24A     -0.521477
      25A     -0.513619    26A     -0.503884    27A     -0.481982
      28A     -0.480121    29A     -0.461028    30A     -0.458336
      31A     -0.455497    32A     -0.448148    33A     -0.428043

  @DF-RHF Final Energy:  -313.54412407187056

   => Energetics <=

    Nuclear Repulsion Energy =            384.9026565926428702
    One-Electron Energy =               -1184.9601987093494699
    Two-Electron Energy =                 486.5134180448360439
    DFT Exchange-Correlation Energy =       0.0000000000000000
    Empirical Dispersion Energy =           0.0000000000000000
    PCM Polarization Energy =               0.0000000000000000
    EFP Energy =                            0.0000000000000000
    Total Energy =                       -313.5441240718705558
  Basis Set:
    Molecular point group: c1
  Basis Set: AUG-CC-PVTZ
  Basis Set:
  Basis Set:
	 Reference Energy          =    -313.5441240718705558 [Eh]
	 Singles Energy            =      -0.0000000000000000 [Eh]
	 Same-Spin Energy          =      -0.3154068516586338 [Eh]
	 Opposite-Spin Energy      =      -1.1241423832292829 [Eh]
	 Correlation Energy        =      -1.4395492348879166 [Eh]
	 Total Energy              =    -314.9836733067584760 [Eh]

	 ================> DF-SCS-MP2 Energies <==================
	-----------------------------------------------------------
	 SCS Same-Spin Scale       =       0.3333333333333333 [-]
	 SCS Opposite-Spin Scale   =       1.2000000000000000 [-]
	 SCS Same-Spin Energy      =      -0.1051356172195446 [Eh]
	 SCS Opposite-Spin Energy  =      -1.3489708598751395 [Eh]
	 SCS Correlation Energy    =      -1.4541064770946841 [Eh]
	 SCS Total Energy          =    -314.9982305489652390 [Eh]
	-----------------------------------------------------------

  -Total Gradient:
     Atom            X                  Y                   Z
    ------   -----------------  -----------------  -----------------
       1       -0.000000096162    -0.000000304053    -0.000000104620
       2        0.000000010214     0.000000086254     0.000000419607
       3       -0.000000217238     0.000000331657    -0.000000106840
       4        0.000000329091    -0.000000011546    -0.000000137475
       5       -0.000000012808    -0.000000138402    -0.000000054135
       6        0.000000181648    -0.000000020740    -0.000000073031
       7       -0.000000110197     0.000000163685    -0.000000054744
       8        0.000000002990     0.000000047196     0.000000248866
       9       -0.000000174540     0.000000537980     0.000000340077
      10        0.000000319236    -0.000000339116     0.000000186762
      11        0.000000009615    -0.000000032885    -0.000000564807
      12       -0.000000114466     0.000000373825     0.000000200662
      13        0.000000210826    -0.000000240190     0.000000133035
      14        0.000000000685    -0.000000016626    -0.000000377250
      15        0.000000421183     0.000000149052    -0.000000441263
      16        0.000000049478    -0.000000045427     0.000000671845
      17       -0.000000092896    -0.000000583096    -0.000000134380
      18       -0.000000447600    -0.000000274280     0.000000159567
      19       -0.000000076203     0.000000111799    -0.000000336329
      20        0.000000065265     0.000000360442    -0.000000001837
      21       -0.000000477601     0.000000138902    -0.000000069467
      22       -0.000000073984    -0.000000007885    -0.000000058104
      23       -0.000000104625     0.000000072040     0.000000060101
      24        0.000000464092    -0.000000005941    -0.000000229612
      25       -0.000000067610    -0.000000359897    -0.000000084773
      26        0.000000001608     0.000000007253     0.000000408146

  **** Optimization is complete! (in 12 steps) ****
    Final optimized geometry and variables:
    Molecular point group: c1

    Geometry (in Angstrom), charge = 0, multiplicity = 1:

    C            3.731411528355     0.795669349279     0.148703752728
    H            3.728335583472     0.890404122138     1.235964162846
    H            3.154025858172     1.624006622010    -0.259854310298
    H            4.759548786472     0.910031839830    -0.193882043424
    C           -3.731413576266    -0.795667999446    -0.148693214595
    H           -4.759550609923    -0.910025488761     0.193894941689
    H           -3.154029234659    -1.624003416228     0.259870496602
    H           -3.728339403962    -0.890411247688    -1.235952853471
    C            3.156355139900    -0.552007093670    -0.274133385784
    H            3.821459855592    -1.348372170940     0.067129414239
    H            3.132237439542    -0.614746943733    -1.365584078438
    C           -3.156353416376     0.552010360149     0.274132704182
    H           -3.821457661811     1.348374228251    -0.067133521170
    H           -3.132232284320     0.614757743282     1.365582795763
    C            1.753305593294    -0.808003289979     0.271402643492
    H            1.778463648907    -0.763557715476     1.365236412917
    H            1.445512295838    -1.824410359546     0.009528154789
    C            0.701989477238     0.167970424835    -0.244284755750
    H            0.713895792265     0.163676553253    -1.339584393350
    H            0.950224145915     1.186275643174     0.065719690035
    C           -0.701989517146    -0.167972290341     0.244280637199
    H           -0.950224318148    -1.186277858560    -0.065722434239
    H           -0.713896885693    -0.163675603876     1.339580262290
    C           -1.753305057271     0.808000303108    -0.271409153748
    H           -1.445508902549     1.824407860692    -0.009541160458
    H           -1.778466149847     0.763549002951    -1.365242340950

*** Psi4 exiting successfully. Buy a developer a beer!
