                              Psi4 1.0.0 Driver

  ==> Input File <==

--------------------------------------------------------------------------
memory 60 Gb

molecule molecule_86_psi {
0 1
C           -2.981311486126     0.689384530983    -0.226366839567
H           -2.491684322512     1.162488646649    -1.076472103656
H           -2.665359049850     1.212950091576     0.677624484242
H           -4.054999364229     0.837888330128    -0.341867358361
C            3.282855940193    -0.041131784036    -0.074591026906
H            4.082596765280    -0.741241908888     0.165912470808
H            3.722711520720     0.954042657785    -0.160202098819
H            2.888121439739    -0.313763682270    -1.053256194148
C           -2.643492438601    -0.795218255095    -0.143231785260
H           -2.904382383578    -1.277459079266    -1.089487501114
H           -3.268036117647    -1.261597089866     0.622505099734
C            2.194621954385    -0.057777925810     0.993174971881
H            1.749405689556    -1.054167651668     1.050147784325
H            2.645236096031     0.129959387071     1.970296875440
C           -1.178976206472    -1.096642238474     0.173686702810
H           -1.068633307481    -2.181192190088     0.246204209699
H           -0.937456631055    -0.703122212284     1.164655555604
C           -0.177825042430    -0.563637574401    -0.860674069882
H           -0.650230711707    -0.573908092989    -1.848191873727
H            0.664950186495    -1.255309039896    -0.929245608484
C            0.377542830732     0.838319890968    -0.589981189968
H            1.066108681822     1.095123928282    -1.399180056345
H           -0.423535704971     1.577514416395    -0.629386220690
C            1.102746460725     0.982406950251     0.750369536093
H            1.549406109196     1.980179173619     0.795285271154
H            0.379615938637     0.939044028661     1.568107434894
}

set globals {
  reference rhf
  g_convergence gau_verytight
  basis aug-cc-pvtz
  freeze_core true
  scf_type df
  mp_type df
}
optimize('mp2')
--------------------------------------------------------------------------

    Molecular point group: c1
  Charge       = 0
  Multiplicity = 1
  Basis Set: AUG-CC-PVTZ
  Basis Set:
  @DF-RHF Final Energy:  -313.53437803487964
    Total Energy =                       -313.5343780348794667
  Basis Set:
    Molecular point group: c1
  Basis Set: AUG-CC-PVTZ
  Basis Set:
  Basis Set:
	 Reference Energy          =    -313.5343780348796372 [Eh]
	 Singles Energy            =      -0.0000000000000002 [Eh]
	 Same-Spin Energy          =      -0.3178112574683648 [Eh]
	 Opposite-Spin Energy      =      -1.1275426365126697 [Eh]
	 Correlation Energy        =      -1.4453538939810346 [Eh]
	 Total Energy              =    -314.9797319288606445 [Eh]
	 SCS Total Energy          =    -314.9933662845176059 [Eh]
  Basis Set: AUG-CC-PVTZ
  Basis Set:
  @DF-RHF Final Energy:  -313.53437825053987
    Total Energy =                       -313.5343782505395325
  Basis Set:
  Basis Set: AUG-CC-PVTZ
  Basis Set:
  @DF-RHF Final Energy:  -313.53437858467288
    Total Energy =                       -313.5343785846728224
  @DF-RHF Final Energy:  -313.53437814596685
    Total Energy =                       -313.5343781459664001
  @DF-RHF Final Energy:  -313.53437813061436
    Total Energy =                       -313.5343781306141295
  @DF-RHF Final Energy:  -313.53437794662756
    Total Energy =                       -313.5343779466272736
  @DF-RHF Final Energy:  -313.53437833211791
    Total Energy =                       -313.5343783321176261
  @DF-RHF Final Energy:  -313.53437817511741
    Total Energy =                       -313.5343781751172401
  @DF-RHF Final Energy:  -313.53437834205209
    Total Energy =                       -313.5343783420521504
  @DF-RHF Final Energy:  -313.53437821610015
    Total Energy =                       -313.5343782161003219
  @DF-RHF Final Energy:  -313.53437816608300
    Total Energy =                       -313.5343781660833997
  @DF-RHF Final Energy:  -313.53437829937400
    Total Energy =                       -313.5343782993743389
  @DF-RHF Final Energy:  -313.53437875357668
    Total Energy =                       -313.5343787535769025
  @DF-RHF Final Energy:  -313.53437827903963
    Total Energy =                       -313.5343782790397427
  @DF-RHF Final Energy:  -313.53437825820987
    Total Energy =                       -313.5343782582099266
  @DF-RHF Final Energy:  -313.53437829165648
    Total Energy =                       -313.5343782916560826
  @DF-RHF Final Energy:  -313.53437828832074
    Total Energy =                       -313.5343782883209656
  @DF-RHF Final Energy:  -313.53437826910437
    Total Energy =                       -313.5343782691041383
  @DF-RHF Final Energy:  -313.53437829157889
    Total Energy =                       -313.5343782915789461
  @DF-RHF Final Energy:  -313.53437836267261
    Total Energy =                       -313.5343783626725553
  @DF-RHF Final Energy:  -313.53437824609290
    Total Energy =                       -313.5343782460928992
  @DF-RHF Final Energy:  -313.53437833635184
    Total Energy =                       -313.5343783363519492
  @DF-RHF Final Energy:  -313.53437828845193
    Total Energy =                       -313.5343782884518191
  @DF-RHF Final Energy:  -313.53437832576515
    Total Energy =                       -313.5343783257654877
  @DF-RHF Final Energy:  -313.53437825128498
    Total Energy =                       -313.5343782512845792
  @DF-RHF Final Energy:  -313.53437850825173
    Total Energy =                       -313.5343785082517343
  @DF-RHF Final Energy:  -313.53437828231318
    Total Energy =                       -313.5343782823130709
  @DF-RHF Final Energy:  -313.53437838747777
    Total Energy =                       -313.5343783874778296
  @DF-RHF Final Energy:  -313.53437824488111
    Total Energy =                       -313.5343782448807133
	 Singles Energy            =      -0.0000000000000000 [Eh]
	 Same-Spin Energy          =      -0.3178112533972502 [Eh]
	 Opposite-Spin Energy      =      -1.1275424343319225 [Eh]
	 Correlation Energy        =      -1.4453536877291726 [Eh]
	 Total Energy              =    -314.9797319326102638 [Eh]
	 SCS Total Energy          =    -314.9933662505451935 [Eh]
  Charge       = 0
  Multiplicity = 1
  Basis Set: AUG-CC-PVTZ
  Basis Set:

    Orbital Energies (a.u.)
    -----------------------

    Doubly Occupied:

       1A    -11.213058     2A    -11.211995     3A    -11.210466
       4A    -11.209880     5A    -11.209719     6A    -11.208665
       7A    -11.206895     8A    -11.206716     9A     -1.094800
      10A     -1.057766    11A     -1.002242    12A     -0.947505
      13A     -0.895931    14A     -0.835291    15A     -0.784505
      16A     -0.741182    17A     -0.649873    18A     -0.634987
      19A     -0.611054    20A     -0.599458    21A     -0.575452
      22A     -0.549471    23A     -0.542289    24A     -0.534786
      25A     -0.516445    26A     -0.510263    27A     -0.491196
      28A     -0.470896    29A     -0.467941    30A     -0.461564
      31A     -0.440720    32A     -0.435132    33A     -0.431795

  @DF-RHF Final Energy:  -313.53437834069575

   => Energetics <=

    Nuclear Repulsion Energy =            405.1162061462966903
    One-Electron Energy =               -1225.3812893970350615
    Two-Electron Energy =                 506.7307049100429595
    DFT Exchange-Correlation Energy =       0.0000000000000000
    Empirical Dispersion Energy =           0.0000000000000000
    PCM Polarization Energy =               0.0000000000000000
    EFP Energy =                            0.0000000000000000
    Total Energy =                       -313.5343783406954117
  Basis Set:
    Molecular point group: c1
  Basis Set: AUG-CC-PVTZ
  Basis Set:
  Basis Set:
	 Reference Energy          =    -313.5343783406957527 [Eh]
	 Singles Energy            =      -0.0000000000000004 [Eh]
	 Same-Spin Energy          =      -0.3178112484622200 [Eh]
	 Opposite-Spin Energy      =      -1.1275423411628640 [Eh]
	 Correlation Energy        =      -1.4453535896250844 [Eh]
	 Total Energy              =    -314.9797319303208383 [Eh]

	 ================> DF-SCS-MP2 Energies <==================
	-----------------------------------------------------------
	 SCS Same-Spin Scale       =       0.3333333333333333 [-]
	 SCS Opposite-Spin Scale   =       1.2000000000000000 [-]
	 SCS Same-Spin Energy      =      -0.1059370828207400 [Eh]
	 SCS Opposite-Spin Energy  =      -1.3530508093954368 [Eh]
	 SCS Correlation Energy    =      -1.4589878922161772 [Eh]
	 SCS Total Energy          =    -314.9933662329119102 [Eh]
	-----------------------------------------------------------

  -Total Gradient:
     Atom            X                  Y                   Z
    ------   -----------------  -----------------  -----------------
       1        0.000000090116     0.000000019038    -0.000000079594
       2        0.000000037164     0.000000100268     0.000000000011
       3       -0.000000012525     0.000000027850     0.000000027659
       4       -0.000000112786     0.000000017929    -0.000000021664
       5        0.000000217351     0.000000062759    -0.000000379999
       6       -0.000000299436     0.000000274234    -0.000000117316
       7       -0.000000234348    -0.000000460043     0.000000090401
       8        0.000000170382     0.000000111970     0.000000425996
       9        0.000000471764    -0.000000194839     0.000000260745
      10       -0.000000031722    -0.000000012077     0.000000033457
      11        0.000000062349    -0.000000000557     0.000000000286
      12       -0.000000075430    -0.000000355810     0.000000400371
      13        0.000000293886     0.000000508928    -0.000000057463
      14       -0.000000170210    -0.000000155268    -0.000000224567
      15       -0.000000240486    -0.000000203866     0.000000247861
      16       -0.000000095592     0.000000450219     0.000000006079
      17       -0.000000058934    -0.000000319754    -0.000000572013
      18        0.000000415723    -0.000000542292     0.000000166197
      19        0.000000066626     0.000000116922     0.000000073691
      20       -0.000000258399     0.000000127336     0.000000065654
      21        0.000000190407     0.000000015022    -0.000000002977
      22       -0.000000009979     0.000000046448     0.000000208872
      23        0.000000055538    -0.000000126500     0.000000008437
      24       -0.000000586205     0.000000849901    -0.000000227382
      25       -0.000000176571    -0.000000343251    -0.000000047037
      26        0.000000291317    -0.000000014567    -0.000000285703

  **** Optimization is complete! (in 30 steps) ****
    Final optimized geometry and variables:
    Molecular point group: c1

    Geometry (in Angstrom), charge = 0, multiplicity = 1:

    C           -2.981312158730     0.689381402763    -0.226393075317
    H           -2.491685913286     1.162455617863    -1.076513536349
    H           -2.665360015073     1.212976828784     0.677578876530
    H           -4.054998599950     0.837882329173    -0.341899568079
    C            3.282853811803    -0.041150695520    -0.074586364319
    H            4.082588478310    -0.741260341751     0.165934661051
    H            3.722716098228     0.954017037924    -0.160217686325
    H            2.888120783661    -0.313801481907    -1.053245353864
    C           -2.643494589074    -0.795219164395    -0.143204874615
    H           -2.904393220177    -1.277494844593    -1.089439644920
    H           -3.268030960235    -1.261568433806     0.622553992614
    C            2.194616686742    -0.057763251399     0.993176224303
    H            1.749391455627    -1.054144649300     1.050167978582
    H            2.645228203230     0.129986966769     1.970295189189
    C           -1.178977466524    -1.096637203212     0.173709240696
    H           -1.068634129442    -2.181184713115     0.246235016006
    H           -0.937455801480    -0.703110526691     1.164672425982
    C           -0.177825321503    -0.563646930897    -0.860656263331
    H           -0.650224274455    -0.573939464316    -1.848177704157
    H            0.664951226602    -1.255319000106    -0.929207666518
    C            0.377547528914     0.838315715291    -0.589998451718
    H            1.066115455436     1.095098643327    -1.399202086230
    H           -0.423527793469     1.577512330920    -0.629419263173
    C            1.102752627133     0.982426787722     0.750341706124
    H            1.549420447180     1.980193162630     0.795232799052
    H            0.379624034226     0.939093745198     1.568079801383

*** Psi4 exiting successfully. Buy a developer a beer!
