                              Psi4 1.0.0 Driver

  ==> Input File <==

--------------------------------------------------------------------------
memory 60 Gb

molecule molecule_95_psi {
0 1
C           -2.794948880458    -0.510359003063    -0.828774425103
H           -2.513417244984    -1.411730858129    -0.284532786113
H           -2.258183634419    -0.512347662062    -1.778844659356
H           -3.860879403952    -0.575319168977    -1.046947412603
C            2.391225449587     1.360260434952    -0.000518804335
H            2.732221503460     2.172353604019    -0.643252811373
H            3.138268468439     1.219687976300     0.782140978147
H            1.467614826296     1.680869776919     0.475620258408
C           -2.479417222082     0.747709297556    -0.027499002675
H           -3.028790783925     0.720262315050     0.917799634142
H           -2.844656638271     1.621525552902    -0.572363115055
C            2.214956970201     0.069933070543    -0.796657599856
H            1.497311398375     0.220753418301    -1.607973965072
H            3.168110895215    -0.160677235147    -1.277919961888
C           -0.994258591203     0.939977030964     0.278981121980
H           -0.879240713154     1.884482470030     0.816329014720
H           -0.444979725849     1.050012149948    -0.659810872307
C           -0.389420796547    -0.205866733178     1.106144839436
H            0.337307347051     0.186934181627     1.821415377890
H           -1.191125996648    -0.642301543292     1.709268040868
C            0.287689924334    -1.313091885262     0.284219934250
H            0.148808850827    -2.269167005037     0.795738065702
H           -0.213698176856    -1.409792912129    -0.681866574220
C            1.789198861352    -1.140997102685     0.041643468875
H            2.305715203262    -1.103501969982     1.006719656112
H            2.141636921741    -2.047709836014    -0.456632224867
}

set globals {
  reference rhf
  g_convergence gau_verytight
  basis aug-cc-pvtz
  freeze_core true
  scf_type df
  mp_type df
}
optimize('mp2')
--------------------------------------------------------------------------

    Molecular point group: c1
  Charge       = 0
  Multiplicity = 1
  Basis Set: AUG-CC-PVTZ
  Basis Set:
  @DF-RHF Final Energy:  -313.52928469339645
    Total Energy =                       -313.5292846933968463
  Basis Set:
    Molecular point group: c1
  Basis Set: AUG-CC-PVTZ
  Basis Set:
  Basis Set:
	 Reference Energy          =    -313.5292846933964483 [Eh]
	 Singles Energy            =      -0.0000000000000001 [Eh]
	 Same-Spin Energy          =      -0.3177887398196679 [Eh]
	 Opposite-Spin Energy      =      -1.1281419405044462 [Eh]
	 Correlation Energy        =      -1.4459306803241143 [Eh]
	 Total Energy              =    -314.9752153737205731 [Eh]
	 SCS Total Energy          =    -314.9889846019416950 [Eh]
  Basis Set: AUG-CC-PVTZ
  Basis Set:
  @DF-RHF Final Energy:  -313.52928512802328
    Total Energy =                       -313.5292851280232753
  Basis Set:
  Basis Set: AUG-CC-PVTZ
  Basis Set:
  @DF-RHF Final Energy:  -313.52928503019734
    Total Energy =                       -313.5292850301971157
  @DF-RHF Final Energy:  -313.52928500422809
    Total Energy =                       -313.5292850042281998
  @DF-RHF Final Energy:  -313.52928484528218
    Total Energy =                       -313.5292848452820635
  @DF-RHF Final Energy:  -313.52928486131759
    Total Energy =                       -313.5292848613177057
  @DF-RHF Final Energy:  -313.52928487838284
    Total Energy =                       -313.5292848783828958
  @DF-RHF Final Energy:  -313.52928495132505
    Total Energy =                       -313.5292849513248257
  @DF-RHF Final Energy:  -313.52928490812576
    Total Energy =                       -313.5292849081259305
  @DF-RHF Final Energy:  -313.52928485204865
    Total Energy =                       -313.5292848520484199
  @DF-RHF Final Energy:  -313.52928866653355
    Total Energy =                       -313.5292886665336027
  @DF-RHF Final Energy:  -313.52928499832637
    Total Energy =                       -313.5292849983264318
  @DF-RHF Final Energy:  -313.52928498412501
    Total Energy =                       -313.5292849841250131
  @DF-RHF Final Energy:  -313.52928496669176
    Total Energy =                       -313.5292849666918755
  @DF-RHF Final Energy:  -313.52928494990215
    Total Energy =                       -313.5292849499023760
  @DF-RHF Final Energy:  -313.52928498410324
    Total Energy =                       -313.5292849841032989
  @DF-RHF Final Energy:  -313.52928501680577
    Total Energy =                       -313.5292850168054883
  @DF-RHF Final Energy:  -313.52928502906616
    Total Energy =                       -313.5292850290658180
  @DF-RHF Final Energy:  -313.52928492541423
    Total Energy =                       -313.5292849254144585
  @DF-RHF Final Energy:  -313.52928494041254
    Total Energy =                       -313.5292849404121398
  @DF-RHF Final Energy:  -313.52928483801486
    Total Energy =                       -313.5292848380148598
  @DF-RHF Final Energy:  -313.52928521732338
    Total Energy =                       -313.5292852173235474
  @DF-RHF Final Energy:  -313.52928491008504
    Total Energy =                       -313.5292849100849821
  @DF-RHF Final Energy:  -313.52928487187484
    Total Energy =                       -313.5292848718746654
  @DF-RHF Final Energy:  -313.52928479346878
    Total Energy =                       -313.5292847934686051
  @DF-RHF Final Energy:  -313.52928477791789
    Total Energy =                       -313.5292847779178373
  @DF-RHF Final Energy:  -313.52928487797851
    Total Energy =                       -313.5292848779787960
  @DF-RHF Final Energy:  -313.52928477332193
    Total Energy =                       -313.5292847733217059
  @DF-RHF Final Energy:  -313.52928478717376
    Total Energy =                       -313.5292847871739923
  @DF-RHF Final Energy:  -313.52928481427881
    Total Energy =                       -313.5292848142786397
  @DF-RHF Final Energy:  -313.52928483078938
    Total Energy =                       -313.5292848307899476
  @DF-RHF Final Energy:  -313.52928481202235
    Total Energy =                       -313.5292848120221834
	 Singles Energy            =      -0.0000000000000004 [Eh]
	 Same-Spin Energy          =      -0.3177887177231861 [Eh]
	 Opposite-Spin Energy      =      -1.1281418421371283 [Eh]
	 Correlation Energy        =      -1.4459305598603149 [Eh]
	 Total Energy              =    -314.9752153718826548 [Eh]
	 SCS Total Energy          =    -314.9889845951612983 [Eh]
  Charge       = 0
  Multiplicity = 1
  Basis Set: AUG-CC-PVTZ
  Basis Set:

    Orbital Energies (a.u.)
    -----------------------

    Doubly Occupied:

       1A    -11.213380     2A    -11.212818     3A    -11.210954
       4A    -11.210756     5A    -11.210333     6A    -11.209765
       7A    -11.207136     8A    -11.204819     9A     -1.092810
      10A     -1.056937    11A     -1.003294    12A     -0.952997
      13A     -0.890277    14A     -0.827359    15A     -0.780927
      16A     -0.763225    17A     -0.642964    18A     -0.618889
      19A     -0.615887    20A     -0.595900    21A     -0.577186
      22A     -0.563685    23A     -0.543940    24A     -0.530891
      25A     -0.515576    26A     -0.507049    27A     -0.490894
      28A     -0.473471    29A     -0.464443    30A     -0.459115
      31A     -0.444526    32A     -0.433387    33A     -0.430692

  @DF-RHF Final Energy:  -313.52928474500311

   => Energetics <=

    Nuclear Repulsion Energy =            407.2800382911651695
    One-Electron Energy =               -1229.7060810866314569
    Two-Electron Energy =                 508.8967580504628359
    DFT Exchange-Correlation Energy =       0.0000000000000000
    Empirical Dispersion Energy =           0.0000000000000000
    PCM Polarization Energy =               0.0000000000000000
    EFP Energy =                            0.0000000000000000
    Total Energy =                       -313.5292847450034515
  Basis Set:
    Molecular point group: c1
  Basis Set: AUG-CC-PVTZ
  Basis Set:
  Basis Set:
	 Reference Energy          =    -313.5292847450031104 [Eh]
	 Singles Energy            =      -0.0000000000000001 [Eh]
	 Same-Spin Energy          =      -0.3177887308296806 [Eh]
	 Opposite-Spin Energy      =      -1.1281418930627003 [Eh]
	 Correlation Energy        =      -1.4459306238923810 [Eh]
	 Total Energy              =    -314.9752153688954763 [Eh]

	 ================> DF-SCS-MP2 Energies <==================
	-----------------------------------------------------------
	 SCS Same-Spin Scale       =       0.3333333333333333 [-]
	 SCS Opposite-Spin Scale   =       1.2000000000000000 [-]
	 SCS Same-Spin Energy      =      -0.1059295769432269 [Eh]
	 SCS Opposite-Spin Energy  =      -1.3537702716752402 [Eh]
	 SCS Correlation Energy    =      -1.4596998486184671 [Eh]
	 SCS Total Energy          =    -314.9889845936215806 [Eh]
	-----------------------------------------------------------

  -Total Gradient:
     Atom            X                  Y                   Z
    ------   -----------------  -----------------  -----------------
       1        0.000000066961     0.000000179333     0.000000141001
       2        0.000000025174    -0.000000155156     0.000000082354
       3        0.000000086225    -0.000000023535    -0.000000163059
       4       -0.000000142361     0.000000001046    -0.000000014716
       5       -0.000000222953    -0.000000359311    -0.000000075525
       6        0.000000049746     0.000000072387    -0.000000104000
       7        0.000000129567    -0.000000019762     0.000000126974
       8       -0.000000155004     0.000000171234     0.000000094355
       9        0.000000043058    -0.000000072346    -0.000000102044
      10       -0.000000050822     0.000000019051     0.000000085391
      11       -0.000000034584     0.000000099622    -0.000000065664
      12        0.000000330045     0.000000292042     0.000000215781
      13       -0.000000238909     0.000000027074    -0.000000291761
      14        0.000000100532    -0.000000019308    -0.000000016424
      15       -0.000000074612    -0.000000299487     0.000000233776
      16       -0.000000007470     0.000000096518     0.000000116973
      17       -0.000000026809     0.000000238687    -0.000000269794
      18       -0.000000317985     0.000000030240    -0.000000585651
      19        0.000000392085     0.000000100262     0.000000397241
      20       -0.000000305806    -0.000000000848     0.000000159367
      21        0.000000486969     0.000000277984     0.000000391460
      22        0.000000003494    -0.000000276002     0.000000269766
      23       -0.000000328209    -0.000000177281    -0.000000535240
      24       -0.000000081160     0.000000026283    -0.000000300786
      25        0.000000249581    -0.000000022449     0.000000327024
      26        0.000000023245    -0.000000206278    -0.000000116800

  **** Optimization is complete! (in 33 steps) ****
    Final optimized geometry and variables:
    Molecular point group: c1

    Geometry (in Angstrom), charge = 0, multiplicity = 1:

    C           -2.794954431173    -0.510398759780    -0.828753595697
    H           -2.513415355776    -1.411744249087    -0.284472363893
    H           -2.258194754062    -0.512428547335    -1.778826745387
    H           -3.860885867089    -0.575373816021    -1.046917332281
    C            2.391225300056     1.360263856479    -0.000570268291
    H            2.732226975663     2.172327322483    -0.643338703155
    H            3.138259760694     1.219729604646     0.782104352983
    H            1.467608658259     1.680894060137     0.475543146600
    C           -2.479420832116     0.747707185281    -0.027538000168
    H           -3.028790176034     0.720304029715     0.917763847055
    H           -2.844661930834     1.621497930588    -0.572441139444
    C            2.214966863980     0.069898273613    -0.796649959722
    H            1.497328989847     0.220679657999    -1.607979981977
    H            3.168125605160    -0.160733012822    -1.277892626725
    C           -0.994260499216     0.939986524877     0.278926425765
    H           -0.879236504690     1.884519020991     0.816224413202
    H           -0.444985126127     1.049971181869    -0.659872681476
    C           -0.389424510621    -0.205817113256     1.106147142277
    H            0.337299055801     0.187019202499     1.821402215659
    H           -1.191130872574    -0.642226530026     1.709286561936
    C            0.287691823009    -1.313078377867     0.284276216924
    H            0.148806292151    -2.269130551072     0.795835127769
    H           -0.213689895924    -1.409821089358    -0.681808981345
    C            1.789202272478    -1.140993780565     0.041703453892
    H            2.305710254767    -1.103453629800     1.006782046207
    H            2.141644758095    -2.047729467071    -0.456526926124

*** Psi4 exiting successfully. Buy a developer a beer!
