                              Psi4 1.0.0 Driver

  ==> Input File <==

--------------------------------------------------------------------------
memory 60 Gb

molecule molecule_80_psi {
0 1
C           -2.499580313840     1.523368036632    -0.073188601498
H           -1.702933013139     1.590937722193    -0.813980921843
H           -2.098967146673     1.865793997474     0.882224199283
H           -3.287384485310     2.214135141152    -0.373615766080
C            3.416052500891     0.150722796693     0.918769921637
H            4.304807243344     0.739709279648     1.144031048902
H            3.708850452634    -0.900307995162     0.892016990078
H            2.716713362489     0.281195408036     1.743615569152
C           -3.036096601308     0.100889353079     0.039204710612
H           -3.406789667976    -0.221846710086    -0.937662017488
H           -3.895814735099     0.093344314879     0.713362121364
C            2.799697039616     0.570131779865    -0.411596780300
H            2.478255042409     1.613805836923    -0.354428043655
H            3.563623970010     0.523687810418    -1.190905724847
C           -2.011383590455    -0.919996942589     0.533080424760
H           -2.506657022905    -1.890799860472     0.602049845582
H           -1.702227613618    -0.660290508017     1.550644723414
C           -0.766277826126    -1.037608857229    -0.357334459076
H           -1.024373450126    -0.749068329406    -1.382055666381
H           -0.446072353418    -2.081438667459    -0.409528899913
C            0.421795316178    -0.206562948095     0.120490279195
H            0.129535816403     0.840688533990     0.233007932586
H            0.706748086308    -0.556465862283     1.116077612735
C            1.612195089684    -0.295485393739    -0.826897943212
H            1.935158369443    -1.339255717806    -0.902471108631
H            1.284782224267     0.000009665321    -1.828067303309
}

set globals {
  reference rhf
  g_convergence gau_verytight
  basis aug-cc-pvtz
  freeze_core true
  scf_type df
  mp_type df
}
optimize('mp2')
--------------------------------------------------------------------------

    Molecular point group: c1
  Charge       = 0
  Multiplicity = 1
  Basis Set: AUG-CC-PVTZ
  Basis Set:
  @DF-RHF Final Energy:  -313.53908426183858
    Total Energy =                       -313.5390842618382976
  Basis Set:
    Molecular point group: c1
  Basis Set: AUG-CC-PVTZ
  Basis Set:
  Basis Set:
	 Reference Energy          =    -313.5390842618385818 [Eh]
	 Singles Energy            =      -0.0000000000000000 [Eh]
	 Same-Spin Energy          =      -0.3161476418209638 [Eh]
	 Opposite-Spin Energy      =      -1.1254027731956548 [Eh]
	 Correlation Energy        =      -1.4415504150166187 [Eh]
	 Total Energy              =    -314.9806346768551748 [Eh]
	 SCS Total Energy          =    -314.9949501369470113 [Eh]
  Basis Set: AUG-CC-PVTZ
  Basis Set:
  @DF-RHF Final Energy:  -313.53908402715018
    Total Energy =                       -313.5390840271500679
  Basis Set:
  Basis Set: AUG-CC-PVTZ
  Basis Set:
  @DF-RHF Final Energy:  -313.53908419300132
    Total Energy =                       -313.5390841930015995
  @DF-RHF Final Energy:  -313.53908421553615
    Total Energy =                       -313.5390842155362634
  @DF-RHF Final Energy:  -313.53908424069135
    Total Energy =                       -313.5390842406910679
  @DF-RHF Final Energy:  -313.53908418112093
    Total Energy =                       -313.5390841811206428
  @DF-RHF Final Energy:  -313.53908417079413
    Total Energy =                       -313.5390841707940126
  @DF-RHF Final Energy:  -313.53908419942877
    Total Energy =                       -313.5390841994287712
  @DF-RHF Final Energy:  -313.53908420597605
    Total Energy =                       -313.5390842059761098
  @DF-RHF Final Energy:  -313.53908404018006
    Total Energy =                       -313.5390840401801142
  @DF-RHF Final Energy:  -313.53908416242649
    Total Energy =                       -313.5390841624266045
  @DF-RHF Final Energy:  -313.53908417447127
    Total Energy =                       -313.5390841744710997
	 Singles Energy            =      -0.0000000000000001 [Eh]
	 Same-Spin Energy          =      -0.3161476384030484 [Eh]
	 Opposite-Spin Energy      =      -1.1254028653226646 [Eh]
	 Correlation Energy        =      -1.4415505037257133 [Eh]
	 Total Energy              =    -314.9806346781969637 [Eh]
	 SCS Total Energy          =    -314.9949501589928218 [Eh]
  Charge       = 0
  Multiplicity = 1
  Basis Set: AUG-CC-PVTZ
  Basis Set:

    Orbital Energies (a.u.)
    -----------------------

    Doubly Occupied:

       1A    -11.213236     2A    -11.212683     3A    -11.210581
       4A    -11.209967     5A    -11.209885     6A    -11.208090
       7A    -11.207145     8A    -11.206382     9A     -1.092992
      10A     -1.060976    11A     -1.006705    12A     -0.947032
      13A     -0.889133    14A     -0.827393    15A     -0.773017
      16A     -0.770898    17A     -0.647803    18A     -0.622785
      19A     -0.616744    20A     -0.595668    21A     -0.574093
      22A     -0.564643    23A     -0.539072    24A     -0.526638
      25A     -0.517678    26A     -0.498872    27A     -0.491350
      28A     -0.479215    29A     -0.462427    30A     -0.458469
      31A     -0.450737    32A     -0.441037    33A     -0.428828

  @DF-RHF Final Energy:  -313.53908422698436

   => Energetics <=

    Nuclear Repulsion Energy =            393.2506484962748914
    One-Electron Energy =               -1201.6551206326819283
    Two-Electron Energy =                 494.8653879094225658
    DFT Exchange-Correlation Energy =       0.0000000000000000
    Empirical Dispersion Energy =           0.0000000000000000
    PCM Polarization Energy =               0.0000000000000000
    EFP Energy =                            0.0000000000000000
    Total Energy =                       -313.5390842269845280
  Basis Set:
    Molecular point group: c1
  Basis Set: AUG-CC-PVTZ
  Basis Set:
  Basis Set:
	 Reference Energy          =    -313.5390842269843574 [Eh]
	 Singles Energy            =      -0.0000000000000003 [Eh]
	 Same-Spin Energy          =      -0.3161476325851547 [Eh]
	 Opposite-Spin Energy      =      -1.1254028156328597 [Eh]
	 Correlation Energy        =      -1.4415504482180146 [Eh]
	 Total Energy              =    -314.9806346752023956 [Eh]

	 ================> DF-SCS-MP2 Energies <==================
	-----------------------------------------------------------
	 SCS Same-Spin Scale       =       0.3333333333333333 [-]
	 SCS Opposite-Spin Scale   =       1.2000000000000000 [-]
	 SCS Same-Spin Energy      =      -0.1053825441950516 [Eh]
	 SCS Opposite-Spin Energy  =      -1.3504833787594317 [Eh]
	 SCS Correlation Energy    =      -1.4558659229544835 [Eh]
	 SCS Total Energy          =    -314.9949501499388589 [Eh]
	-----------------------------------------------------------

  -Total Gradient:
     Atom            X                  Y                   Z
    ------   -----------------  -----------------  -----------------
       1       -0.000000188326    -0.000000369022     0.000000010639
       2        0.000000331857     0.000000079701    -0.000000237528
       3        0.000000186050     0.000000179983     0.000000325378
       4       -0.000000248109     0.000000152485    -0.000000085653
       5       -0.000000159599     0.000000094582    -0.000000349634
       6        0.000000196438     0.000000142810     0.000000002200
       7        0.000000091934    -0.000000268470     0.000000055570
       8       -0.000000126332     0.000000023855     0.000000199050
       9        0.000000301481     0.000000046230     0.000000149467
      10       -0.000000114039    -0.000000075645    -0.000000256327
      11       -0.000000188562    -0.000000020464     0.000000173694
      12       -0.000000022179    -0.000000279401     0.000000350623
      13       -0.000000064953     0.000000364159     0.000000007494
      14        0.000000197764    -0.000000011379    -0.000000201288
      15       -0.000000041061     0.000000075858    -0.000000356224
      16       -0.000000075454    -0.000000146365    -0.000000000552
      17        0.000000049480     0.000000045424     0.000000298524
      18        0.000000082795     0.000000153252     0.000000527500
      19       -0.000000144575     0.000000076892    -0.000000385074
      20        0.000000087590    -0.000000224233     0.000000023381
      21       -0.000000193611    -0.000000439754    -0.000000679809
      22       -0.000000173064     0.000000514717     0.000000176161
      23        0.000000147329    -0.000000059897     0.000000431864
      24       -0.000000055906     0.000000308978     0.000000371348
      25        0.000000164770    -0.000000471488    -0.000000098347
      26       -0.000000041717     0.000000107193    -0.000000452458

  **** Optimization is complete! (in 13 steps) ****
    Final optimized geometry and variables:
    Molecular point group: c1

    Geometry (in Angstrom), charge = 0, multiplicity = 1:

    C           -2.499587441035     1.523365657574    -0.073193129479
    H           -1.702940835725     1.590935200400    -0.813986437953
    H           -2.098974468913     1.865796256368     0.882218321815
    H           -3.287394252409     2.214129223901    -0.373621987447
    C            3.416057034326     0.150711884596     0.918769631232
    H            4.304814960657     0.739693335433     1.144032701712
    H            3.708850550876    -0.900320320989     0.892009502609
    H            2.716719717599     0.281182607692     1.743617547114
    C           -3.036098632372     0.100885330935     0.039204847477
    H           -3.406791150513    -0.221855134752    -0.937660677905
    H           -3.895816257184     0.093339512390     0.713362961584
    C            2.799700909387     0.570132028613    -0.411593540772
    H            2.478262726105     1.613807315189    -0.354418054850
    H            3.563627130371     0.523689780564    -1.190903716969
    C           -2.011381794346    -0.919995650382     0.533083568133
    H           -2.506651803610    -1.890799908391     0.602058502905
    H           -1.702224717921    -0.660283320702     1.550645994236
    C           -0.766277047442    -1.037607002404    -0.357332642237
    H           -1.024374467977    -0.749071072649    -1.382054665414
    H           -0.446067834386    -2.081435929047    -0.409522899660
    C            0.421793436981    -0.206554551127     0.120488016360
    H            0.129529104505     0.840696834698     0.232999811690
    H            0.706746225766    -0.556451577682     1.116077815283
    C            1.612195244566    -0.295478874992    -0.826898963293
    H            1.935154707747    -1.339250784382    -0.902474491526
    H            1.284784607860     0.000020155939    -1.828068437974

*** Psi4 exiting successfully. Buy a developer a beer!
