                              Psi4 1.0.0 Driver

  ==> Input File <==

--------------------------------------------------------------------------
memory 60 Gb

molecule molecule_19_psi {
0 1
C            3.658296865830     0.147256076630    -0.176561675764
H            3.914213893965    -0.455606895044     0.696400195923
H            4.528191696900     0.752148422438    -0.431470111145
H            3.474907416429    -0.531219790105    -1.008544105327
C           -3.482549900646     1.061980884523    -0.014085027358
H           -3.848591367701     1.782853570870    -0.744759119147
H           -3.262105103908     1.601712187759     0.907956998742
H           -4.289063393909     0.359165643990     0.198450385406
C            2.445187821967     1.024352710282     0.114751868475
H            2.181320660633     1.596026586735    -0.779586247844
H            2.709972974408     1.755558165662     0.881764091366
C           -2.244841900058     0.328695276388    -0.516720505401
H           -2.476137536947    -0.195451825105    -1.448686136046
H           -1.465360136019     1.055835786495    -0.755884281920
C            1.221835252680     0.237176535867     0.581278835273
H            0.447135379491     0.943066957383     0.890652300951
H            1.484302025522    -0.345404159875     1.471404791591
C            0.657089308699    -0.698229921050    -0.481796409676
H            1.432489107012    -1.394772925048    -0.807638812393
H            0.383302856668    -0.111454120088    -1.363583307742
C           -0.545772386120    -1.510921958213    -0.001342979975
H           -0.893973609594    -2.145891862499    -0.821199168714
H           -0.219525254242    -2.185227231531     0.795828491998
C           -1.720103270692    -0.673769951140     0.504124596410
H           -2.534816986832    -1.346487681739     0.787850856526
H           -1.436975795350    -0.141102780102     1.416157736240
}

set globals {
  reference rhf
  g_convergence gau_verytight
  basis aug-cc-pvtz
  freeze_core true
  scf_type df
  mp_type df
}
optimize('mp2')
--------------------------------------------------------------------------

    Molecular point group: c1
  Charge       = 0
  Multiplicity = 1
  Basis Set: AUG-CC-PVTZ
  Basis Set:
  @DF-RHF Final Energy:  -313.54162060875456
    Total Energy =                       -313.5416206087544992
  Basis Set:
    Molecular point group: c1
  Basis Set: AUG-CC-PVTZ
  Basis Set:
  Basis Set:
	 Reference Energy          =    -313.5416206087545561 [Eh]
	 Singles Energy            =      -0.0000000000000004 [Eh]
	 Same-Spin Energy          =      -0.3164250851881645 [Eh]
	 Opposite-Spin Energy      =      -1.1254512834530948 [Eh]
	 Correlation Energy        =      -1.4418763686412597 [Eh]
	 Total Energy              =    -314.9834969773958164 [Eh]
	 SCS Total Energy          =    -314.9976371772943367 [Eh]
  Basis Set: AUG-CC-PVTZ
  Basis Set:
  @DF-RHF Final Energy:  -313.54162077343284
    Total Energy =                       -313.5416207734328964
  Basis Set:
  Basis Set: AUG-CC-PVTZ
  Basis Set:
  @DF-RHF Final Energy:  -313.54162073121148
    Total Energy =                       -313.5416207312114238
  @DF-RHF Final Energy:  -313.54162069353714
    Total Energy =                       -313.5416206935369701
	 Singles Energy            =      -0.0000000000000001 [Eh]
	 Same-Spin Energy          =      -0.3164250782454304 [Eh]
	 Opposite-Spin Energy      =      -1.1254512060184634 [Eh]
	 Correlation Energy        =      -1.4418762842638941 [Eh]
	 Total Energy              =    -314.9834969778010532 [Eh]
	 SCS Total Energy          =    -314.9976371668411161 [Eh]
  Charge       = 0
  Multiplicity = 1
  Basis Set: AUG-CC-PVTZ
  Basis Set:

    Orbital Energies (a.u.)
    -----------------------

    Doubly Occupied:

       1A    -11.213101     2A    -11.212177     3A    -11.210739
       4A    -11.210089     5A    -11.209256     6A    -11.208728
       7A    -11.207179     8A    -11.206530     9A     -1.095210
      10A     -1.059428    11A     -1.008815    12A     -0.944916
      13A     -0.887867    14A     -0.830065    15A     -0.791199
      16A     -0.751231    17A     -0.647243    18A     -0.627434
      19A     -0.610979    20A     -0.593202    21A     -0.580772
      22A     -0.562715    23A     -0.546062    24A     -0.533505
      25A     -0.507854    26A     -0.499965    27A     -0.491764
      28A     -0.473707    29A     -0.467465    30A     -0.462461
      31A     -0.443707    32A     -0.439867    33A     -0.434189

  @DF-RHF Final Energy:  -313.54162069586323

   => Energetics <=

    Nuclear Repulsion Energy =            394.6768037077902136
    One-Electron Energy =               -1204.4980064920691802
    Two-Electron Energy =                 496.2795820884163049
    DFT Exchange-Correlation Energy =       0.0000000000000000
    Empirical Dispersion Energy =           0.0000000000000000
    PCM Polarization Energy =               0.0000000000000000
    EFP Energy =                            0.0000000000000000
    Total Energy =                       -313.5416206958626617
  Basis Set:
    Molecular point group: c1
  Basis Set: AUG-CC-PVTZ
  Basis Set:
  Basis Set:
	 Reference Energy          =    -313.5416206958632301 [Eh]
	 Singles Energy            =      -0.0000000000000001 [Eh]
	 Same-Spin Energy          =      -0.3164250496236578 [Eh]
	 Opposite-Spin Energy      =      -1.1254512279927933 [Eh]
	 Correlation Energy        =      -1.4418762776164511 [Eh]
	 Total Energy              =    -314.9834969734797028 [Eh]

	 ================> DF-SCS-MP2 Energies <==================
	-----------------------------------------------------------
	 SCS Same-Spin Scale       =       0.3333333333333333 [-]
	 SCS Opposite-Spin Scale   =       1.2000000000000000 [-]
	 SCS Same-Spin Energy      =      -0.1054750165412193 [Eh]
	 SCS Opposite-Spin Energy  =      -1.3505414735913519 [Eh]
	 SCS Correlation Energy    =      -1.4560164901325712 [Eh]
	 SCS Total Energy          =    -314.9976371859958135 [Eh]
	-----------------------------------------------------------

  -Total Gradient:
     Atom            X                  Y                   Z
    ------   -----------------  -----------------  -----------------
       1        0.000000201835    -0.000000130700    -0.000000073329
       2       -0.000000017233     0.000000043367    -0.000000055729
       3       -0.000000042727    -0.000000025379     0.000000027045
       4       -0.000000010757     0.000000125120     0.000000108146
       5       -0.000000210610    -0.000000097298     0.000000013312
       6        0.000000082856    -0.000000203636     0.000000191860
       7       -0.000000027186    -0.000000171532    -0.000000265676
       8        0.000000285598     0.000000226846    -0.000000069664
       9       -0.000000071366     0.000000052911    -0.000000091367
      10       -0.000000040055    -0.000000062152     0.000000033620
      11        0.000000019974     0.000000052803     0.000000049317
      12        0.000000436487     0.000000219791    -0.000000434383
      13        0.000000236896     0.000000266394     0.000000700566
      14       -0.000000468391    -0.000000443038     0.000000137177
      15       -0.000000012562     0.000000410864     0.000000662063
      16        0.000000114370    -0.000000099157    -0.000000171409
      17       -0.000000080527    -0.000000059793    -0.000000216599
      18        0.000000122639    -0.000000018534    -0.000000855729
      19       -0.000000328433     0.000000344645     0.000000093305
      20        0.000000222167    -0.000000561366     0.000000566338
      21       -0.000000261606    -0.000000647447    -0.000000388951
      22        0.000000274202     0.000000394214     0.000000555620
      23       -0.000000162207     0.000000325023    -0.000000414586
      24       -0.000000335570     0.000000033993     0.000000526484
      25        0.000000366749     0.000000368229    -0.000000016680
      26       -0.000000294537    -0.000000344170    -0.000000610750

  **** Optimization is complete! (in 5 steps) ****
    Final optimized geometry and variables:
    Molecular point group: c1

    Geometry (in Angstrom), charge = 0, multiplicity = 1:

    C            3.658303708093     0.147244419414    -0.176561150940
    H            3.914219343056    -0.455615797118     0.696403630766
    H            4.528201209940     0.752131929599    -0.431473513575
    H            3.474910373424    -0.531234897220    -1.008540509098
    C           -3.482566258306     1.061967425688    -0.014088271537
    H           -3.848611387903     1.782837990490    -0.744762113307
    H           -3.262136510851     1.601697410490     0.907957530226
    H           -4.289071563860     0.359140629652     0.198437281155
    C            2.445198810671     1.024348447762     0.114749293039
    H            2.181334837552     1.596021281472    -0.779590875846
    H            2.709987650628     1.755555040657     0.881759642485
    C           -2.244844411599     0.328700801484    -0.516716148497
    H           -2.476124831761    -0.195443855113    -1.448686005221
    H           -1.465369355589     1.055851282844    -0.755868044756
    C            1.221841264011     0.237180231394     0.581277828448
    H            0.447146260555     0.943075961220     0.890651874560
    H            1.484304566867    -0.345402406675     1.471403886521
    C            0.657087671218    -0.698221588874    -0.481797839551
    H            1.432484822175    -1.394764695514    -0.807646802099
    H            0.383297683695    -0.111442455647    -1.363581278347
    C           -0.545773300518    -1.510913802646    -0.001342174526
    H           -0.893974194595    -2.145883873610    -0.821197930677
    H           -0.219523860293    -2.185219074086     0.795828262140
    C           -1.720104973126    -0.673764183816     0.504127639981
    H           -2.534816886275    -1.346483471251     0.787852683679
    H           -1.436979888696    -0.141097920033     1.416161190855

*** Psi4 exiting successfully. Buy a developer a beer!
