                              Psi4 1.0.0 Driver

  ==> Input File <==

--------------------------------------------------------------------------
memory 60 Gb

molecule molecule_33_psi {
0 1
C            0.094806617670     3.816150588170    -0.600083544321
H           -0.260797615711     4.842895804484    -0.516843740017
H           -0.294267692175     3.408416991881    -1.532036982125
H            1.183168578703     3.844169393353    -0.675988482961
C           -0.094796914767    -3.816108860873    -0.599792762780
H            0.294351457627    -3.408348642636    -1.531706174028
H           -1.183152805449    -3.844126633100    -0.675786826182
H            0.260802875370    -4.842855781162    -0.516547398802
C           -0.337699567699     2.985556915849     0.603668623591
H           -1.429455239891     2.935615286863     0.642685895804
H           -0.018710487396     3.490232369554     1.518332793853
C            0.337607346395    -2.985540042588     0.604012483059
H            0.018468384023    -3.490174445700     1.518648349893
H            1.429361519477    -2.935669759322     0.643161756950
C            0.226350342670     1.565665731929     0.599367943450
H           -0.030621664279     1.083878569045     1.544870617417
H            1.320152003025     1.612927778837     0.559926443132
C           -0.275058619286     0.713034271104    -0.561742026969
H           -0.004373987885     1.192487552976    -1.504811831301
H           -1.369678860025     0.676913253369    -0.533818080081
C            0.275121484396    -0.713151689463    -0.561624667796
H            0.004473464876    -1.192751753842    -1.504632968889
H            1.369740314564    -0.677027931507    -0.533663343598
C           -0.226331286765    -1.565610079662     0.599591987711
H            0.030682903782    -1.083743177258     1.545043491556
H           -1.320136035664    -1.612801184368     0.560160352812
}

set globals {
  reference rhf
  g_convergence gau_verytight
  basis aug-cc-pvtz
  freeze_core true
  scf_type df
  mp_type df
}
optimize('mp2')
--------------------------------------------------------------------------

    Molecular point group: c1
  Charge       = 0
  Multiplicity = 1
  Basis Set: AUG-CC-PVTZ
  Basis Set:
  @DF-RHF Final Energy:  -313.54178809026104
    Total Energy =                       -313.5417880902613206
  Basis Set:
    Molecular point group: c1
  Basis Set: AUG-CC-PVTZ
  Basis Set:
  Basis Set:
	 Reference Energy          =    -313.5417880902610364 [Eh]
	 Singles Energy            =      -0.0000000000000004 [Eh]
	 Same-Spin Energy          =      -0.3158834412407697 [Eh]
	 Opposite-Spin Energy      =      -1.1248284214889828 [Eh]
	 Correlation Energy        =      -1.4407118627297528 [Eh]
	 Total Energy              =    -314.9824999529907927 [Eh]
	 SCS Total Energy          =    -314.9968766764613974 [Eh]
  Basis Set: AUG-CC-PVTZ
  Basis Set:
  @DF-RHF Final Energy:  -313.54178807287002
    Total Energy =                       -313.5417880728698492
  Basis Set:
  Basis Set: AUG-CC-PVTZ
  Basis Set:
  @DF-RHF Final Energy:  -313.54178820522407
    Total Energy =                       -313.5417882052239520
  @DF-RHF Final Energy:  -313.54178813895754
    Total Energy =                       -313.5417881389574859
  @DF-RHF Final Energy:  -313.54178842314832
    Total Energy =                       -313.5417884231480343
  @DF-RHF Final Energy:  -313.54178836074959
    Total Energy =                       -313.5417883607494787
  @DF-RHF Final Energy:  -313.54178795835037
    Total Energy =                       -313.5417879583504259
  @DF-RHF Final Energy:  -313.54178852241296
    Total Energy =                       -313.5417885224126735
  @DF-RHF Final Energy:  -313.54178805327535
    Total Energy =                       -313.5417880532752406
  @DF-RHF Final Energy:  -313.54178848270033
    Total Energy =                       -313.5417884827001558
  @DF-RHF Final Energy:  -313.54178777209557
    Total Energy =                       -313.5417877720956312
  @DF-RHF Final Energy:  -313.54178833720187
    Total Energy =                       -313.5417883372020924
  @DF-RHF Final Energy:  -313.54178821253589
    Total Energy =                       -313.5417882125361189
  @DF-RHF Final Energy:  -313.54178829604558
    Total Energy =                       -313.5417882960457518
  @DF-RHF Final Energy:  -313.54178824010870
    Total Energy =                       -313.5417882401087013
  @DF-RHF Final Energy:  -313.54178822902321
    Total Energy =                       -313.5417882290229272
  @DF-RHF Final Energy:  -313.54178815411649
    Total Energy =                       -313.5417881541162615
  @DF-RHF Final Energy:  -313.54178801850082
    Total Energy =                       -313.5417880185005970
  @DF-RHF Final Energy:  -313.54178809232621
    Total Energy =                       -313.5417880923262146
  @DF-RHF Final Energy:  -313.54178797361340
    Total Energy =                       -313.5417879736136229
  @DF-RHF Final Energy:  -313.54178806144711
    Total Energy =                       -313.5417880614471642
  @DF-RHF Final Energy:  -313.54178822190056
    Total Energy =                       -313.5417882219005605
  @DF-RHF Final Energy:  -313.54178817013684
    Total Energy =                       -313.5417881701365559
  @DF-RHF Final Energy:  -313.54178809468488
    Total Energy =                       -313.5417880946849891
  @DF-RHF Final Energy:  -313.54178793003979
    Total Energy =                       -313.5417879300393906
  @DF-RHF Final Energy:  -313.54178818861300
    Total Energy =                       -313.5417881886127702
	 Singles Energy            =      -0.0000000000000001 [Eh]
	 Same-Spin Energy          =      -0.3158834258692700 [Eh]
	 Opposite-Spin Energy      =      -1.1248283322236430 [Eh]
	 Correlation Energy        =      -1.4407117580929132 [Eh]
	 Total Energy              =    -314.9824999467059001 [Eh]
	 SCS Total Energy          =    -314.9968766625711396 [Eh]
  Charge       = 0
  Multiplicity = 1
  Basis Set: AUG-CC-PVTZ
  Basis Set:

    Orbital Energies (a.u.)
    -----------------------

    Doubly Occupied:

       1A    -11.212666     2A    -11.212666     3A    -11.210102
       4A    -11.209733     5A    -11.209326     6A    -11.209087
       7A    -11.206287     8A    -11.206286     9A     -1.093575
      10A     -1.060654    11A     -1.008302    12A     -0.942014
      13A     -0.892080    14A     -0.828381    15A     -0.783428
      16A     -0.760312    17A     -0.634028    18A     -0.622973
      19A     -0.622023    20A     -0.601575    21A     -0.577987
      22A     -0.555014    23A     -0.554253    24A     -0.518468
      25A     -0.516356    26A     -0.511545    27A     -0.481176
      28A     -0.471626    29A     -0.465794    30A     -0.460255
      31A     -0.453617    32A     -0.437950    33A     -0.431271

  @DF-RHF Final Energy:  -313.54178815237861

   => Energetics <=

    Nuclear Repulsion Energy =            388.0626370588404939
    One-Electron Energy =               -1191.2872261100078504
    Two-Electron Energy =                 489.6828008987891963
    DFT Exchange-Correlation Energy =       0.0000000000000000
    Empirical Dispersion Energy =           0.0000000000000000
    PCM Polarization Energy =               0.0000000000000000
    EFP Energy =                            0.0000000000000000
    Total Energy =                       -313.5417881523782171
  Basis Set:
    Molecular point group: c1
  Basis Set: AUG-CC-PVTZ
  Basis Set:
  Basis Set:
	 Reference Energy          =    -313.5417881523786150 [Eh]
	 Singles Energy            =      -0.0000000000000001 [Eh]
	 Same-Spin Energy          =      -0.3158834591814838 [Eh]
	 Opposite-Spin Energy      =      -1.1248283371319310 [Eh]
	 Correlation Energy        =      -1.4407117963134151 [Eh]
	 Total Energy              =    -314.9824999486920092 [Eh]

	 ================> DF-SCS-MP2 Energies <==================
	-----------------------------------------------------------
	 SCS Same-Spin Scale       =       0.3333333333333333 [-]
	 SCS Opposite-Spin Scale   =       1.2000000000000000 [-]
	 SCS Same-Spin Energy      =      -0.1052944863938279 [Eh]
	 SCS Opposite-Spin Energy  =      -1.3497940045583172 [Eh]
	 SCS Correlation Energy    =      -1.4550884909521453 [Eh]
	 SCS Total Energy          =    -314.9968766433307792 [Eh]
	-----------------------------------------------------------

  -Total Gradient:
     Atom            X                  Y                   Z
    ------   -----------------  -----------------  -----------------
       1        0.000000011403    -0.000000050600    -0.000000108590
       2        0.000000026727    -0.000000119725    -0.000000068129
       3        0.000000058558     0.000000008115     0.000000008149
       4       -0.000000148416    -0.000000005706     0.000000024090
       5        0.000000014783    -0.000000007344     0.000000025388
       6       -0.000000000610    -0.000000052145     0.000000043215
       7       -0.000000000311    -0.000000006270     0.000000004278
       8       -0.000000019057     0.000000047912     0.000000024474
       9        0.000000002181    -0.000000011549     0.000000167183
      10        0.000000201093     0.000000010182    -0.000000017052
      11       -0.000000055103    -0.000000084638    -0.000000129718
      12        0.000000015886    -0.000000088661    -0.000000054593
      13        0.000000000580    -0.000000018329     0.000000022931
      14        0.000000047188    -0.000000013867     0.000000025364
      15       -0.000000093478    -0.000000170172    -0.000000102902
      16        0.000000011567     0.000000034565    -0.000000094409
      17       -0.000000076907     0.000000076645     0.000000062779
      18        0.000000103853     0.000000249329     0.000000243882
      19        0.000000008177     0.000000169344    -0.000000178915
      20       -0.000000087037     0.000000040618     0.000000041790
      21       -0.000000133771     0.000000043911     0.000000212784
      22       -0.000000057809    -0.000000067182    -0.000000158721
      23        0.000000274776     0.000000031654     0.000000003699
      24        0.000000072735    -0.000000040265    -0.000000151113
      25        0.000000030049     0.000000041256     0.000000080138
      26       -0.000000207058    -0.000000017074     0.000000073999

  **** Optimization is complete! (in 27 steps) ****
    Final optimized geometry and variables:
    Molecular point group: c1

    Geometry (in Angstrom), charge = 0, multiplicity = 1:

    C            0.094781797750     3.816124831568    -0.599987560144
    H           -0.260822763009     4.842866898803    -0.516718684992
    H           -0.294417175340     3.408365788153    -1.531877922768
    H            1.183131887647     3.844154160583    -0.676044899560
    C           -0.094795173827    -3.816143905152    -0.599889411019
    H            0.294436271359    -3.408420775077    -1.531782580605
    H           -1.183144362104    -3.844156998006    -0.675975386734
    H            0.260789532840    -4.842889958987    -0.516578280982
    C           -0.337544584100     2.985547203422     0.603839903384
    H           -1.429293660500     2.935625243168     0.643028385420
    H           -0.018399727605     3.490210718793     1.518455759010
    C            0.337513778124    -2.985537214222     0.603924223487
    H            0.018335901944    -3.490169404991     1.518546675027
    H            1.429263504331    -2.935632713771     0.643140813676
    C            0.226468464623     1.565645241620     0.599431154339
    H           -0.030456953134     1.083808170288     1.544920345527
    H            1.320266697078     1.612886176082     0.559923556809
    C           -0.275023566069     0.713104070679    -0.561707779759
    H           -0.004339585163     1.192593840091    -1.504759087290
    H           -1.369643797445     0.677044081960    -0.533753848890
    C            0.275076639399    -0.713113321403    -0.561674169727
    H            0.004441670129    -1.192628124876    -1.504727331482
    H            1.369695866102    -0.677051903245    -0.533664379035
    C           -0.226476258843    -1.565625494929     0.599461442921
    H            0.030418465054    -1.083772797796     1.544951745067
    H           -1.320274834626    -1.612849208659     0.559911763148

*** Psi4 exiting successfully. Buy a developer a beer!
