                              Psi4 1.0.0 Driver

  ==> Input File <==

--------------------------------------------------------------------------
memory 30 Gb

molecule molecule_12_psi {
0 1
symmetry c1
    C            3.432353266954     1.161129483403    -0.311904000688
    H            4.363555879972     1.384037120457     0.203921507379
    H            2.885385681494     2.094031288607    -0.436167191652
    H            3.679173410507     0.786813422039    -1.303829078890
    C           -3.130209447104     1.495585006170     0.028379897993
    H           -2.689607987813     2.120514654053    -0.746686678345
    H           -3.430920265280     2.141944635487     0.849729269185
    H           -4.026449834191     1.037201677122    -0.385825246402
    C            2.597842671375     0.148609989417     0.449699596015
    H            2.374915541152     0.529942281455     1.447734777503
    H            3.168621208096    -0.770793848490     0.589527256245
    C           -2.144893195059     0.434173636781     0.481224554042
    H           -1.273682777854     0.916337637806     0.924894928633
    H           -2.593175341701    -0.179164164817     1.265723433553
    C            1.294932504894    -0.179722484002    -0.253953067188
    H            1.509752257188    -0.583839836231    -1.247226649348
    H            0.737531470579     0.745864550113    -0.410849163248
    C            0.444924310895    -1.171698891006     0.517473622364
    H            0.170729678402    -0.735331498663     1.479397624631
    H            1.048477938513    -2.052560552762     0.744912102244
    C           -0.807543249551    -1.611045166106    -0.226324120974
    H           -0.511693172240    -2.185155891693    -1.106597016998
    H           -1.380697322898    -2.288233958370     0.410138912111
    C           -1.707298961432    -0.464006150041    -0.660782813227
    H           -1.200262604871     0.139355779370    -1.415864015870
    H           -2.594801943763    -0.874689058175    -1.146480039974
}

set globals {
  reference rhf
  g_convergence gau_verytight
  basis aug-cc-pvtz
  freeze_core true
  scf_type df
  mp_type df
}
optimize('mp2')
--------------------------------------------------------------------------

    Molecular point group: c1
  Charge       = 0
  Multiplicity = 1
  Basis Set: AUG-CC-PVTZ
  Basis Set:
  @DF-RHF Final Energy:  -313.54322295145892
    Total Energy =                       -313.5432229514585742
  Basis Set:
    Molecular point group: c1
  Basis Set: AUG-CC-PVTZ
  Basis Set:
  Basis Set:
	 Reference Energy          =    -313.5432229514589153 [Eh]
	 Singles Energy            =      -0.0000000000000000 [Eh]
	 Same-Spin Energy          =      -0.3164675581844859 [Eh]
	 Opposite-Spin Energy      =      -1.1245472491438848 [Eh]
	 Correlation Energy        =      -1.4410148073283708 [Eh]
	 Total Energy              =    -314.9842377587872875 [Eh]
	 SCS Total Energy          =    -314.9981688364930505 [Eh]
  Basis Set: AUG-CC-PVTZ
  Basis Set:
  @DF-RHF Final Energy:  -313.54353345036225
    Total Energy =                       -313.5435334503622471
  Basis Set:
  Basis Set: AUG-CC-PVTZ
  Basis Set:
  @DF-RHF Final Energy:  -313.54353524384038
    Total Energy =                       -313.5435352438405516
  @DF-RHF Final Energy:  -313.54366375926980
    Total Energy =                       -313.5436637592702596
  @DF-RHF Final Energy:  -313.54369496064373
    Total Energy =                       -313.5436949606436769
  @DF-RHF Final Energy:  -313.54369570196735
    Total Energy =                       -313.5436957019671809
  @DF-RHF Final Energy:  -313.54369517663582
    Total Energy =                       -313.5436951766358789
  @DF-RHF Final Energy:  -313.54369455108235
    Total Energy =                       -313.5436945510825240
  @DF-RHF Final Energy:  -313.54369463921626
    Total Energy =                       -313.5436946392159712
  @DF-RHF Final Energy:  -313.54369462738123
    Total Energy =                       -313.5436946273808871
  @DF-RHF Final Energy:  -313.54369496974772
    Total Energy =                       -313.5436949697477758
  @DF-RHF Final Energy:  -313.54369466724324
    Total Energy =                       -313.5436946672434715
	 Singles Energy            =      -0.0000000000000003 [Eh]
	 Same-Spin Energy          =      -0.3159926881493312 [Eh]
	 Opposite-Spin Energy      =      -1.1248272791444305 [Eh]
	 Correlation Energy        =      -1.4408199672937618 [Eh]
	 Total Energy              =    -314.9845146345369926 [Eh]
	 SCS Total Energy          =    -314.9988182982663147 [Eh]
  Charge       = 0
  Multiplicity = 1
  Basis Set: AUG-CC-PVTZ
  Basis Set:

    Orbital Energies (a.u.)
    -----------------------

    Doubly Occupied:

       1A    -11.212664     2A    -11.212289     3A    -11.210818
       4A    -11.210021     5A    -11.209433     6A    -11.209245
       7A    -11.207291     8A    -11.207279     9A     -1.095231
      10A     -1.059842    11A     -1.010961    12A     -0.947544
      13A     -0.882144    14A     -0.824421    15A     -0.795970
      16A     -0.755708    17A     -0.649380    18A     -0.636196
      19A     -0.600266    20A     -0.593344    21A     -0.576991
      22A     -0.561141    23A     -0.543623    24A     -0.538702
      25A     -0.507467    26A     -0.499328    27A     -0.492308
      28A     -0.475434    29A     -0.466979    30A     -0.462033
      31A     -0.443312    32A     -0.442580    33A     -0.435671

  @DF-RHF Final Energy:  -313.54369456859553

   => Energetics <=

    Nuclear Repulsion Energy =            392.7406170893920603
    One-Electron Energy =               -1200.6173874565502047
    Two-Electron Energy =                 494.3330757985626178
    DFT Exchange-Correlation Energy =       0.0000000000000000
    Empirical Dispersion Energy =           0.0000000000000000
    PCM Polarization Energy =               0.0000000000000000
    EFP Energy =                            0.0000000000000000
    Total Energy =                       -313.5436945685954697
  Basis Set:
    Molecular point group: c1
  Basis Set: AUG-CC-PVTZ
  Basis Set:
  Basis Set:
	 Reference Energy          =    -313.5436945685955266 [Eh]
	 Singles Energy            =      -0.0000000000000000 [Eh]
	 Same-Spin Energy          =      -0.3159926440034059 [Eh]
	 Opposite-Spin Energy      =      -1.1248274234091147 [Eh]
	 Correlation Energy        =      -1.4408200674125207 [Eh]
	 Total Energy              =    -314.9845146360080435 [Eh]

	 ================> DF-SCS-MP2 Energies <==================
	-----------------------------------------------------------
	 SCS Same-Spin Scale       =       0.3333333333333333 [-]
	 SCS Opposite-Spin Scale   =       1.2000000000000000 [-]
	 SCS Same-Spin Energy      =      -0.1053308813344686 [Eh]
	 SCS Opposite-Spin Energy  =      -1.3497929080909377 [Eh]
	 SCS Correlation Energy    =      -1.4551237894254063 [Eh]
	 SCS Total Energy          =    -314.9988183580209125 [Eh]
	-----------------------------------------------------------

  -Total Gradient:
     Atom            X                  Y                   Z
    ------   -----------------  -----------------  -----------------
       1        0.000000023573     0.000000051945    -0.000000009994
       2       -0.000000042319    -0.000000034399     0.000000026184
       3       -0.000000014094     0.000000007546     0.000000016710
       4       -0.000000004654    -0.000000012501    -0.000000018404
       5       -0.000000036261     0.000000085023     0.000000080799
       6       -0.000000008545    -0.000000008461     0.000000022781
       7        0.000000023850    -0.000000024265    -0.000000041288
       8        0.000000035911    -0.000000014721     0.000000031027
       9        0.000000069181     0.000000140738    -0.000000033202
      10       -0.000000048212     0.000000014669     0.000000082168
      11        0.000000038613    -0.000000113260    -0.000000030281
      12       -0.000000148635     0.000000080275     0.000000164543
      13        0.000000019796    -0.000000000248    -0.000000019536
      14       -0.000000015418    -0.000000017633     0.000000006519
      15        0.000000234957     0.000000023653    -0.000000130410
      16        0.000000048394    -0.000000061663    -0.000000147077
      17       -0.000000075063     0.000000139061     0.000000013779
      18       -0.000000195599    -0.000000125301     0.000000073794
      19       -0.000000061476     0.000000051019     0.000000169398
      20        0.000000050023    -0.000000048299    -0.000000007534
      21        0.000000036604     0.000000117352     0.000000037315
      22        0.000000079411    -0.000000113703    -0.000000122596
      23       -0.000000113503    -0.000000058196     0.000000021533
      24        0.000000007376    -0.000000128907    -0.000000040134
      25        0.000000133966     0.000000082675    -0.000000131944
      26       -0.000000037875    -0.000000032400    -0.000000014150

  **** Optimization is complete! (in 13 steps) ****
    Final optimized geometry and variables:
    Molecular point group: c1

    Geometry (in Angstrom), charge = 0, multiplicity = 1:

    C            3.475298966606     1.143235728851    -0.327600171912
    H            4.403054052991     1.373363740567     0.195691199094
    H            2.936639820697     2.078914543165    -0.482721024641
    H            3.733905926766     0.742985813892    -1.308724598092
    C           -3.172974318016     1.493797639658     0.042176661531
    H           -2.723169275495     2.138314977508    -0.714362022164
    H           -3.495316522922     2.124197953267     0.870562855017
    H           -4.060091560866     1.036387389177    -0.397576560044
    C            2.620364591413     0.151358068462     0.451299015032
    H            2.388851628034     0.559070540591     1.439122476204
    H            3.184059506982    -0.769759990906     0.621250690163
    C           -2.183795576890     0.427466985002     0.496860427449
    H           -1.321916522263     0.909091799764     0.964518483460
    H           -2.642370283217    -0.201390066860     1.265612043423
    C            1.318511656861    -0.184371389457    -0.265565197493
    H            1.545307257007    -0.606409889970    -1.250761046010
    H            0.766296306338     0.742586608991    -0.446484785103
    C            0.451328410048    -1.163506995234     0.515991541847
    H            0.179713817122    -0.715013335196     1.475512420565
    H            1.046066941642    -2.050325637044     0.753258301583
    C           -0.808347819874    -1.601347660316    -0.230689138883
    H           -0.513235596482    -2.170416231229    -1.116981683346
    H           -1.378053787895    -2.286971349544     0.403266645450
    C           -1.720233411938    -0.452062698292    -0.658165215955
    H           -1.213907888315     0.170478015481    -1.401184443260
    H           -2.599513016507    -0.867217812867    -1.159429210641

*** Psi4 exiting successfully. Buy a developer a beer!
