                              Psi4 1.0.0 Driver

  ==> Input File <==

--------------------------------------------------------------------------
memory 30 Gb

molecule molecule_22_psi {
0 1
symmetry c1
    C            3.240027511967    -1.384499215112     0.035594001613
    H            2.702547511785    -2.148288418674    -0.523567946235
    H            3.160256597592    -1.630029386240     1.093080356292
    H            4.289747323268    -1.440768445846    -0.243464623524
    C           -2.965843064795    -1.606225151049    -0.207984694299
    H           -3.198211883165    -2.454087195334     0.432325757213
    H           -2.459468811326    -1.983266524460    -1.095003970657
    H           -3.905309636877    -1.158538541776    -0.528331802872
    C            2.658306025479    -0.010649075396    -0.240163360490
    H            2.763304510203     0.229055834981    -1.299678644636
    H            3.222501196116     0.746480500614     0.306701301051
    C           -2.101736966262    -0.584756685678     0.506374385477
    H           -2.604465364277    -0.244293416545     1.413215757414
    H           -1.169935299833    -1.047763962006     0.827127051446
    C            1.194506487304     0.087530197809     0.144973082143
    H            1.084516981169    -0.137778676380     1.209055580210
    H            0.636632195142    -0.679534363579    -0.395628836083
    C            0.604667315100     1.454668241220    -0.146189174631
    H            0.676982629341     1.645811213929    -1.219799173968
    H            1.217719178785     2.213077081046     0.345321402276
    C           -0.844483945628     1.627318278566     0.283637910821
    H           -0.910005658661     1.534655224743     1.370364334915
    H           -1.154185064276     2.644070968582     0.041835462558
    C           -1.803386536410     0.626720954931    -0.361198425759
    H           -2.749830546797     1.116095105882    -0.596016722083
    H           -1.389149568323     0.293388454144    -1.316658338154
}

set globals {
  reference rhf
  g_convergence gau_verytight
  basis aug-cc-pvtz
  freeze_core true
  scf_type df
  mp_type df
}
optimize('mp2')
--------------------------------------------------------------------------

    Molecular point group: c1
  Charge       = 0
  Multiplicity = 1
  Basis Set: AUG-CC-PVTZ
  Basis Set:
  @DF-RHF Final Energy:  -313.54057201027075
    Total Energy =                       -313.5405720102709211
  Basis Set:
    Molecular point group: c1
  Basis Set: AUG-CC-PVTZ
  Basis Set:
  Basis Set:
	 Reference Energy          =    -313.5405720102707505 [Eh]
	 Singles Energy            =      -0.0000000000000004 [Eh]
	 Same-Spin Energy          =      -0.3162692063972373 [Eh]
	 Opposite-Spin Energy      =      -1.1245831208407080 [Eh]
	 Correlation Energy        =      -1.4408523272379457 [Eh]
	 Total Energy              =    -314.9814243375087131 [Eh]
	 SCS Total Energy          =    -314.9954948240786621 [Eh]
  Basis Set: AUG-CC-PVTZ
  Basis Set:
  @DF-RHF Final Energy:  -313.54086121862053
    Total Energy =                       -313.5408612186204778
  Basis Set:
  Basis Set: AUG-CC-PVTZ
  Basis Set:
  @DF-RHF Final Energy:  -313.54087465911789
    Total Energy =                       -313.5408746591182307
  @DF-RHF Final Energy:  -313.54091980235120
    Total Energy =                       -313.5409198023507997
  @DF-RHF Final Energy:  -313.54092874490476
    Total Energy =                       -313.5409287449048747
  @DF-RHF Final Energy:  -313.54093181254024
    Total Energy =                       -313.5409318125401228
  @DF-RHF Final Energy:  -313.54093198353667
    Total Energy =                       -313.5409319835369502
  @DF-RHF Final Energy:  -313.54093213853099
    Total Energy =                       -313.5409321385310477
  @DF-RHF Final Energy:  -313.54093188677291
    Total Energy =                       -313.5409318867727961
  @DF-RHF Final Energy:  -313.54093187774708
    Total Energy =                       -313.5409318777468570
  @DF-RHF Final Energy:  -313.54093193083048
    Total Energy =                       -313.5409319308304248
  @DF-RHF Final Energy:  -313.54093151801715
    Total Energy =                       -313.5409315180168051
  @DF-RHF Final Energy:  -313.54093198203020
    Total Energy =                       -313.5409319820300880
  @DF-RHF Final Energy:  -313.54093202377629
    Total Energy =                       -313.5409320237764064
  @DF-RHF Final Energy:  -313.54093213424721
    Total Energy =                       -313.5409321342472140
  @DF-RHF Final Energy:  -313.54093176613765
    Total Energy =                       -313.5409317661372484
  @DF-RHF Final Energy:  -313.54093193783876
    Total Energy =                       -313.5409319378387636
  @DF-RHF Final Energy:  -313.54093199326707
    Total Energy =                       -313.5409319932671792
  @DF-RHF Final Energy:  -313.54093177488488
    Total Energy =                       -313.5409317748850526
  @DF-RHF Final Energy:  -313.54093180054087
    Total Energy =                       -313.5409318005411023
  @DF-RHF Final Energy:  -313.54093205503636
    Total Energy =                       -313.5409320550363645
  @DF-RHF Final Energy:  -313.54093222880698
    Total Energy =                       -313.5409322288071508
  @DF-RHF Final Energy:  -313.54093196759624
    Total Energy =                       -313.5409319675959523
  @DF-RHF Final Energy:  -313.54093199929713
    Total Energy =                       -313.5409319992971291
  @DF-RHF Final Energy:  -313.54093203768383
    Total Energy =                       -313.5409320376835467
	 Singles Energy            =      -0.0000000000000001 [Eh]
	 Same-Spin Energy          =      -0.3158381950505027 [Eh]
	 Opposite-Spin Energy      =      -1.1249170789520793 [Eh]
	 Correlation Energy        =      -1.4407552740025820 [Eh]
	 Total Energy              =    -314.9816873116864144 [Eh]
	 SCS Total Energy          =    -314.9961119307765216 [Eh]
  Charge       = 0
  Multiplicity = 1
  Basis Set: AUG-CC-PVTZ
  Basis Set:

    Orbital Energies (a.u.)
    -----------------------

    Doubly Occupied:

       1A    -11.212677     2A    -11.211209     3A    -11.211065
       4A    -11.210535     5A    -11.210010     6A    -11.209891
       7A    -11.207446     8A    -11.206677     9A     -1.093767
      10A     -1.059473    11A     -1.011913    12A     -0.947278
      13A     -0.883699    14A     -0.817885    15A     -0.788630
      16A     -0.771063    17A     -0.650046    18A     -0.630395
      19A     -0.603845    20A     -0.591073    21A     -0.568472
      22A     -0.563541    23A     -0.555127    24A     -0.524604
      25A     -0.515260    26A     -0.503395    27A     -0.484632
      28A     -0.472351    29A     -0.467309    30A     -0.463747
      31A     -0.453420    32A     -0.437112    33A     -0.432385

  @DF-RHF Final Energy:  -313.54093201382625

   => Energetics <=

    Nuclear Repulsion Energy =            392.5378665796677069
    One-Electron Energy =               -1200.2177315494261620
    Two-Electron Energy =                 494.1389329559323755
    DFT Exchange-Correlation Energy =       0.0000000000000000
    Empirical Dispersion Energy =           0.0000000000000000
    PCM Polarization Energy =               0.0000000000000000
    EFP Energy =                            0.0000000000000000
    Total Energy =                       -313.5409320138260796
  Basis Set:
    Molecular point group: c1
  Basis Set: AUG-CC-PVTZ
  Basis Set:
  Basis Set:
	 Reference Energy          =    -313.5409320138262501 [Eh]
	 Singles Energy            =      -0.0000000000000000 [Eh]
	 Same-Spin Energy          =      -0.3158381760332286 [Eh]
	 Opposite-Spin Energy      =      -1.1249171240412723 [Eh]
	 Correlation Energy        =      -1.4407553000745010 [Eh]
	 Total Energy              =    -314.9816873139007498 [Eh]

	 ================> DF-SCS-MP2 Energies <==================
	-----------------------------------------------------------
	 SCS Same-Spin Scale       =       0.3333333333333333 [-]
	 SCS Opposite-Spin Scale   =       1.2000000000000000 [-]
	 SCS Same-Spin Energy      =      -0.1052793920110762 [Eh]
	 SCS Opposite-Spin Energy  =      -1.3499005488495268 [Eh]
	 SCS Correlation Energy    =      -1.4551799408606030 [Eh]
	 SCS Total Energy          =    -314.9961119546868531 [Eh]
	-----------------------------------------------------------

  -Total Gradient:
     Atom            X                  Y                   Z
    ------   -----------------  -----------------  -----------------
       1        0.000000012537    -0.000000156000    -0.000000014430
       2        0.000000055483     0.000000090381     0.000000062825
       3       -0.000000005105     0.000000068672    -0.000000125885
       4       -0.000000085474    -0.000000004384     0.000000014764
       5       -0.000000086136    -0.000000102067     0.000000042849
       6        0.000000017787     0.000000067791    -0.000000045808
       7        0.000000010298     0.000000010035     0.000000019960
       8       -0.000000002761    -0.000000010445    -0.000000001969
       9        0.000000131428     0.000000092338    -0.000000068754
      10       -0.000000027873    -0.000000049208     0.000000127457
      11       -0.000000054940    -0.000000062457    -0.000000031294
      12        0.000000149676    -0.000000052039     0.000000118236
      13        0.000000039843    -0.000000038591    -0.000000112181
      14       -0.000000118407     0.000000052621    -0.000000002033
      15       -0.000000140656    -0.000000103992     0.000000093187
      16       -0.000000003199     0.000000023807    -0.000000078001
      17        0.000000069276     0.000000087033     0.000000012165
      18       -0.000000005938     0.000000024370    -0.000000113046
      19       -0.000000025963    -0.000000015735     0.000000153860
      20       -0.000000072100    -0.000000066244    -0.000000031578
      21       -0.000000073020     0.000000120420     0.000000190322
      22        0.000000026411     0.000000003375    -0.000000223646
      23        0.000000017707    -0.000000115283    -0.000000001058
      24        0.000000164891     0.000000075258    -0.000000001875
      25        0.000000009974     0.000000064824     0.000000058298
      26       -0.000000003739    -0.000000004483    -0.000000042363

  **** Optimization is complete! (in 26 steps) ****
    Final optimized geometry and variables:
    Molecular point group: c1

    Geometry (in Angstrom), charge = 0, multiplicity = 1:

    C            3.284237341590    -1.356085497590     0.076791736896
    H            2.763739520996    -2.133120511921    -0.484483914949
    H            3.197970182009    -1.598489801478     1.136748724534
    H            4.339483045085    -1.398456326708    -0.191850485267
    C           -3.004633898755    -1.616111878319    -0.241397309235
    H           -3.229477437561    -2.479192905363     0.384748829197
    H           -2.524054914582    -1.977884891630    -1.151491152515
    H           -3.950124370727    -1.153489981375    -0.528050809877
    C            2.683328082121     0.013551186812    -0.213936471655
    H            2.797242073479     0.249595878061    -1.275434197914
    H            3.232623012734     0.783029332369     0.334987767953
    C           -2.109939445027    -0.615377162802     0.478775934262
    H           -2.589735632776    -0.290121976788     1.405799596362
    H           -1.175433843814    -1.097652333419     0.769823727826
    C            1.207674812681     0.091857750603     0.157910494408
    H            1.090911042303    -0.131347640319     1.223809452005
    H            0.665695232880    -0.687633631016    -0.385443069602
    C            0.599575725940     1.455371966590    -0.146574314574
    H            0.675455266733     1.642037126976    -1.222813249489
    H            1.202796711628     2.225814478798     0.343135906917
    C           -0.859298287297     1.619278497605     0.278612423548
    H           -0.932492988193     1.529154408775     1.367122864602
    H           -1.170647535431     2.637179475423     0.034584903417
    C           -1.818744986299     0.615616031434    -0.375366461140
    H           -2.771822385260     1.103536941542    -0.596169930548
    H           -1.410177629405     0.299220660338    -1.341436923522

*** Psi4 exiting successfully. Buy a developer a beer!
