                              Psi4 1.0.0 Driver

  ==> Input File <==

--------------------------------------------------------------------------
memory 60 Gb

molecule molecule_82_psi {
0 1
C            3.157193231426    -1.075119602430    -0.552822100032
H            4.077579614149    -0.635767787400    -0.165351264021
H            2.921096405878    -0.574062271457    -1.491706531235
H            3.354171195633    -2.122998441390    -0.778248605812
C           -3.429956491976    -1.203385928048     0.025960900623
H           -4.511864535023    -1.095265843638     0.098748136681
H           -3.091541868116    -1.779254087718     0.888245184136
H           -3.210672341941    -1.786829629579    -0.869151051832
C            2.026795311029    -0.927683318887     0.460207202247
H            2.304086280128    -1.447456435348     1.380255949103
H            1.129175350176    -1.420249503364     0.082029865878
C           -2.730823725069     0.149357330100    -0.027268710553
H           -3.100000323825     0.723629208041    -0.881130318137
H           -2.978565585934     0.729012053110     0.866077174391
C            1.718889459979     0.536464793589     0.781762002603
H            2.663410502680     1.032669722235     1.020910340138
H            1.106942741057     0.595987856352     1.686735587447
C            1.003975490918     1.293474558736    -0.347945949609
H            1.230186986459     0.822740461062    -1.309106700036
H            1.390899884194     2.312563764474    -0.411755922025
C           -0.512489539936     1.368391236673    -0.172850638295
H           -0.735063822406     1.911595803549     0.751471756254
H           -0.938047129843     1.960144776690    -0.988955199532
C           -1.216280703754     0.017508214144    -0.130789807295
H           -0.964008851417    -0.553548963366    -1.030913004062
H           -0.853808746928    -0.566183170833     0.720187536766
}

set globals {
  reference rhf
  g_convergence gau_verytight
  basis aug-cc-pvtz
  freeze_core true
  scf_type df
  mp_type df
}
optimize('mp2')
--------------------------------------------------------------------------

    Molecular point group: c1
  Charge       = 0
  Multiplicity = 1
  Basis Set: AUG-CC-PVTZ
  Basis Set:
  @DF-RHF Final Energy:  -313.53901369828770
    Total Energy =                       -313.5390136982881018
  Basis Set:
    Molecular point group: c1
  Basis Set: AUG-CC-PVTZ
  Basis Set:
  Basis Set:
	 Reference Energy          =    -313.5390136982877038 [Eh]
	 Singles Energy            =      -0.0000000000000001 [Eh]
	 Same-Spin Energy          =      -0.3162370976673328 [Eh]
	 Opposite-Spin Energy      =      -1.1254896515660082 [Eh]
	 Correlation Energy        =      -1.4417267492333410 [Eh]
	 Total Energy              =    -314.9807404475210433 [Eh]
	 SCS Total Energy          =    -314.9950136460560088 [Eh]
  Basis Set: AUG-CC-PVTZ
  Basis Set:
  @DF-RHF Final Energy:  -313.53901362053057
    Total Energy =                       -313.5390136205305680
  Basis Set:
  Basis Set: AUG-CC-PVTZ
  Basis Set:
  @DF-RHF Final Energy:  -313.53901364886735
    Total Energy =                       -313.5390136488675807
  @DF-RHF Final Energy:  -313.53901356018952
    Total Energy =                       -313.5390135601890051
  @DF-RHF Final Energy:  -313.53901363301850
    Total Energy =                       -313.5390136330184987
  @DF-RHF Final Energy:  -313.53901116812193
    Total Energy =                       -313.5390111681220446
  @DF-RHF Final Energy:  -313.53901368809881
    Total Energy =                       -313.5390136880990894
  @DF-RHF Final Energy:  -313.53901365199994
    Total Energy =                       -313.5390136519997100
  @DF-RHF Final Energy:  -313.53901371833354
    Total Energy =                       -313.5390137183341039
  @DF-RHF Final Energy:  -313.53901361075839
    Total Energy =                       -313.5390136107586727
  @DF-RHF Final Energy:  -313.53901365015577
    Total Energy =                       -313.5390136501557663
  @DF-RHF Final Energy:  -313.53901365354619
    Total Energy =                       -313.5390136535463625
	 Singles Energy            =      -0.0000000000000001 [Eh]
	 Same-Spin Energy          =      -0.3162370718462725 [Eh]
	 Opposite-Spin Energy      =      -1.1254897216411446 [Eh]
	 Correlation Energy        =      -1.4417267934874172 [Eh]
	 Total Energy              =    -314.9807404470336110 [Eh]
	 SCS Total Energy          =    -314.9950136767976687 [Eh]
  Charge       = 0
  Multiplicity = 1
  Basis Set: AUG-CC-PVTZ
  Basis Set:

    Orbital Energies (a.u.)
    -----------------------

    Doubly Occupied:

       1A    -11.212571     2A    -11.211728     3A    -11.210856
       4A    -11.210477     5A    -11.209925     6A    -11.209721
       7A    -11.207325     8A    -11.206232     9A     -1.093995
      10A     -1.059346    11A     -1.009989    12A     -0.944919
      13A     -0.887865    14A     -0.822976    15A     -0.787186
      16A     -0.763846    17A     -0.648488    18A     -0.627236
      19A     -0.614646    20A     -0.589222    21A     -0.571062
      22A     -0.565744    23A     -0.545297    24A     -0.529729
      25A     -0.515735    26A     -0.498523    27A     -0.486504
      28A     -0.475276    29A     -0.468294    30A     -0.462109
      31A     -0.449581    32A     -0.436899    33A     -0.432544

  @DF-RHF Final Energy:  -313.53901363931874

   => Energetics <=

    Nuclear Repulsion Energy =            394.1921411282426675
    One-Electron Energy =               -1203.5306152180532990
    Two-Electron Energy =                 495.7994604504922336
    DFT Exchange-Correlation Energy =       0.0000000000000000
    Empirical Dispersion Energy =           0.0000000000000000
    PCM Polarization Energy =               0.0000000000000000
    EFP Energy =                            0.0000000000000000
    Total Energy =                       -313.5390136393184548
  Basis Set:
    Molecular point group: c1
  Basis Set: AUG-CC-PVTZ
  Basis Set:
  Basis Set:
	 Reference Energy          =    -313.5390136393187390 [Eh]
	 Singles Energy            =      -0.0000000000000009 [Eh]
	 Same-Spin Energy          =      -0.3162370640866400 [Eh]
	 Opposite-Spin Energy      =      -1.1254897435428988 [Eh]
	 Correlation Energy        =      -1.4417268076295398 [Eh]
	 Total Energy              =    -314.9807404469482890 [Eh]

	 ================> DF-SCS-MP2 Energies <==================
	-----------------------------------------------------------
	 SCS Same-Spin Scale       =       0.3333333333333333 [-]
	 SCS Opposite-Spin Scale   =       1.2000000000000000 [-]
	 SCS Same-Spin Energy      =      -0.1054123546955467 [Eh]
	 SCS Opposite-Spin Energy  =      -1.3505876922514786 [Eh]
	 SCS Correlation Energy    =      -1.4560000469470262 [Eh]
	 SCS Total Energy          =    -314.9950136862657928 [Eh]
	-----------------------------------------------------------

  -Total Gradient:
     Atom            X                  Y                   Z
    ------   -----------------  -----------------  -----------------
       1        0.000000160181     0.000000046183    -0.000000098207
       2       -0.000000116403    -0.000000016228    -0.000000011356
       3       -0.000000021914    -0.000000052018     0.000000102000
       4       -0.000000027141     0.000000132271     0.000000043316
       5       -0.000000173047    -0.000000598399     0.000000037181
       6        0.000000434696    -0.000000050270    -0.000000016589
       7       -0.000000101901     0.000000321291    -0.000000371124
       8       -0.000000037051     0.000000399311     0.000000406334
       9        0.000000253956    -0.000000182117     0.000000194695
      10       -0.000000011409     0.000000062155    -0.000000141005
      11        0.000000067144     0.000000124074     0.000000027949
      12       -0.000000661559     0.000001241497    -0.000000142295
      13        0.000000400896    -0.000000491077     0.000000525871
      14        0.000000257719    -0.000000478498    -0.000000555442
      15       -0.000000098579    -0.000000045088     0.000000108247
      16        0.000000063150    -0.000000085969    -0.000000009441
      17        0.000000040825    -0.000000085892    -0.000000086333
      18       -0.000000013017     0.000000012953    -0.000000056244
      19       -0.000000194493    -0.000000049693     0.000000030399
      20       -0.000000030250    -0.000000002010    -0.000000035197
      21       -0.000000016413     0.000000595395    -0.000000012217
      22        0.000000078874    -0.000000188164    -0.000000352457
      23        0.000000127554    -0.000000253985     0.000000324243
      24        0.000000322012    -0.000001432152    -0.000000044016
      25       -0.000000341271     0.000000579884     0.000000563475
      26       -0.000000362557     0.000000496545    -0.000000431782

  **** Optimization is complete! (in 13 steps) ****
    Final optimized geometry and variables:
    Molecular point group: c1

    Geometry (in Angstrom), charge = 0, multiplicity = 1:

    C            3.157194191241    -1.075114966061    -0.552825831029
    H            4.077577748152    -0.635745383054    -0.165366053799
    H            2.921081776799    -0.574070078723    -1.491713777776
    H            3.354185848390    -2.122993967053    -0.778242993277
    C           -3.429959560995    -1.203381838524     0.025968548882
    H           -4.511867359497    -1.095259338856     0.098761132277
    H           -3.091540645176    -1.779244670217     0.888255455963
    H           -3.210680851325    -1.786831630685    -0.869141390196
    C            2.026802574426    -0.927687139945     0.460211467305
    H            2.304105894445    -1.447455725637     1.380260049932
    H            1.129182029145    -1.420261800572     0.082041356537
    C           -2.730825161336     0.149360819884    -0.027273808730
    H           -3.100004032617     0.723627627853    -0.881138150969
    H           -2.978561636873     0.729021359496     0.866070040011
    C            1.718885396487     0.536458265830     0.781768479035
    H            2.663404181570     1.032664631181     1.020927397860
    H            1.106930225665     0.595973262117     1.686738521610
    C            1.003976996341     1.293474105718    -0.347940442502
    H            1.230194014435     0.822746647143    -1.309104322793
    H            1.390901652563     2.312564167743    -0.411741430487
    C           -0.512489249848     1.368390025550    -0.172854867593
    H           -0.735069427592     1.911593600804     0.751467183462
    H           -0.938041590331     1.960144652160    -0.988961636376
    C           -1.216282112468     0.017507017220    -0.130801444837
    H           -0.964015407453    -0.553544031830    -1.030930655749
    H           -0.853807156296    -0.566189972635     0.720171723303

*** Psi4 exiting successfully. Buy a developer a beer!
