                              Psi4 1.0.0 Driver

  ==> Input File <==

--------------------------------------------------------------------------
memory 60 Gb

molecule molecule_48_psi {
0 1
C           -2.983600901020    -0.669762623983     0.657881276988
H           -3.773014209867    -0.389190649280    -0.041686494978
H           -2.793565240161     0.186179624704     1.305119184769
H           -3.361719468488    -1.478032288424     1.283377341799
C            3.270591445260    -0.952003759386    -0.151442329836
H            3.427033609617    -0.675295187438    -1.194976290629
H            3.484583417445    -2.015816136217    -0.051243853735
H            3.998168159865    -0.404259976559     0.449066705475
C           -1.724381637407    -1.096365914878    -0.089138384135
H           -1.923320749868    -2.023184288003    -0.632282628783
H           -0.936831636999    -1.328092499820     0.630740845625
C            1.849170377013    -0.620249728615     0.286573655314
H            1.141210841482    -1.198891950147    -0.307421920733
H            1.703452592687    -0.925622033066     1.326599812223
C           -1.232163414999    -0.044950195251    -1.082822664364
H           -2.003740652641     0.100194313834    -1.845243220568
H           -0.353273915367    -0.422550665875    -1.611118094436
C           -0.911173940745     1.312659882772    -0.458473195938
H           -1.828701084903     1.745773944012    -0.052458399450
H           -0.582563287863     1.991639617190    -1.250819331416
C            0.156963502007     1.303987394648     0.636483242370
H            0.218021573660     2.317568962224     1.039401486775
H           -0.158894761887     0.668688480296     1.469586827423
C            1.552514100984     0.872347834254     0.167433524604
H            1.698491855515     1.188744848499    -0.871308980407
H            2.307571318309     1.404035959841     0.753603817719
}

set globals {
  reference rhf
  g_convergence gau_verytight
  basis aug-cc-pvtz
  freeze_core true
  scf_type df
  mp_type df
}
optimize('mp2')
--------------------------------------------------------------------------

    Molecular point group: c1
  Charge       = 0
  Multiplicity = 1
  Basis Set: AUG-CC-PVTZ
  Basis Set:
  @DF-RHF Final Energy:  -313.53656155094825
    Total Energy =                       -313.5365615509487043
  Basis Set:
    Molecular point group: c1
  Basis Set: AUG-CC-PVTZ
  Basis Set:
  Basis Set:
	 Reference Energy          =    -313.5365615509482495 [Eh]
	 Singles Energy            =      -0.0000000000000000 [Eh]
	 Same-Spin Energy          =      -0.3174664499539173 [Eh]
	 Opposite-Spin Energy      =      -1.1270289061004006 [Eh]
	 Correlation Energy        =      -1.4444953560543179 [Eh]
	 Total Energy              =    -314.9810569070025394 [Eh]
	 SCS Total Energy          =    -314.9948183882533499 [Eh]
  Basis Set: AUG-CC-PVTZ
  Basis Set:
  @DF-RHF Final Energy:  -313.53656163466371
    Total Energy =                       -313.5365616346643947
  Basis Set:
  Basis Set: AUG-CC-PVTZ
  Basis Set:
  @DF-RHF Final Energy:  -313.53656176271852
    Total Energy =                       -313.5365617627186907
  @DF-RHF Final Energy:  -313.53656160443910
    Total Energy =                       -313.5365616044391572
  @DF-RHF Final Energy:  -313.53656152941841
    Total Energy =                       -313.5365615294190320
  @DF-RHF Final Energy:  -313.53656155515733
    Total Energy =                       -313.5365615551575047
  @DF-RHF Final Energy:  -313.53656157626216
    Total Energy =                       -313.5365615762624429
  @DF-RHF Final Energy:  -313.53656155921112
    Total Energy =                       -313.5365615592111226
  @DF-RHF Final Energy:  -313.53656155923869
    Total Energy =                       -313.5365615592389759
  @DF-RHF Final Energy:  -313.53656156531645
    Total Energy =                       -313.5365615653161626
  @DF-RHF Final Energy:  -313.53656155258534
    Total Energy =                       -313.5365615525855674
  @DF-RHF Final Energy:  -313.53656151036347
    Total Energy =                       -313.5365615103635832
  @DF-RHF Final Energy:  -313.53656152896008
    Total Energy =                       -313.5365615289604193
  @DF-RHF Final Energy:  -313.53656150204495
    Total Energy =                       -313.5365615020442647
  @DF-RHF Final Energy:  -313.53656152127326
    Total Energy =                       -313.5365615212731427
	 Singles Energy            =      -0.0000000000000002 [Eh]
	 Same-Spin Energy          =      -0.3174664592926378 [Eh]
	 Opposite-Spin Energy      =      -1.1270289247439340 [Eh]
	 Correlation Energy        =      -1.4444953840365720 [Eh]
	 Total Energy              =    -314.9810569053098561 [Eh]
	 SCS Total Energy          =    -314.9948183840635352 [Eh]
  Charge       = 0
  Multiplicity = 1
  Basis Set: AUG-CC-PVTZ
  Basis Set:

    Orbital Energies (a.u.)
    -----------------------

    Doubly Occupied:

       1A    -11.211834     2A    -11.211799     3A    -11.210999
       4A    -11.210561     5A    -11.210296     6A    -11.209732
       7A    -11.206975     8A    -11.206808     9A     -1.094751
      10A     -1.057394    11A     -1.008178    12A     -0.946848
      13A     -0.889981    14A     -0.829417    15A     -0.793037
      16A     -0.746036    17A     -0.650422    18A     -0.635578
      19A     -0.611477    20A     -0.581566    21A     -0.579582
      22A     -0.563810    23A     -0.539107    24A     -0.531625
      25A     -0.524030    26A     -0.498944    27A     -0.492730
      28A     -0.472533    29A     -0.467486    30A     -0.460968
      31A     -0.442366    32A     -0.438112    33A     -0.432974

  @DF-RHF Final Energy:  -313.53656150977048

   => Energetics <=

    Nuclear Repulsion Energy =            404.3085786681049854
    One-Electron Energy =               -1223.7543691868570477
    Two-Electron Energy =                 505.9092290089813559
    DFT Exchange-Correlation Energy =       0.0000000000000000
    Empirical Dispersion Energy =           0.0000000000000000
    PCM Polarization Energy =               0.0000000000000000
    EFP Energy =                            0.0000000000000000
    Total Energy =                       -313.5365615097707632
  Basis Set:
    Molecular point group: c1
  Basis Set: AUG-CC-PVTZ
  Basis Set:
  Basis Set:
	 Reference Energy          =    -313.5365615097704790 [Eh]
	 Singles Energy            =      -0.0000000000000001 [Eh]
	 Same-Spin Energy          =      -0.3174664619784977 [Eh]
	 Opposite-Spin Energy      =      -1.1270289362282413 [Eh]
	 Correlation Energy        =      -1.4444953982067392 [Eh]
	 Total Energy              =    -314.9810569079772335 [Eh]

	 ================> DF-SCS-MP2 Energies <==================
	-----------------------------------------------------------
	 SCS Same-Spin Scale       =       0.3333333333333333 [-]
	 SCS Opposite-Spin Scale   =       1.2000000000000000 [-]
	 SCS Same-Spin Energy      =      -0.1058221539928326 [Eh]
	 SCS Opposite-Spin Energy  =      -1.3524347234738896 [Eh]
	 SCS Correlation Energy    =      -1.4582568774667224 [Eh]
	 SCS Total Energy          =    -314.9948183872372169 [Eh]
	-----------------------------------------------------------

  -Total Gradient:
     Atom            X                  Y                   Z
    ------   -----------------  -----------------  -----------------
       1       -0.000000108267     0.000000218092     0.000000070827
       2        0.000000284205    -0.000000071000     0.000000171299
       3        0.000000027637    -0.000000318897    -0.000000219425
       4        0.000000058328     0.000000308870    -0.000000182483
       5        0.000000195765    -0.000000406903     0.000000067629
       6       -0.000000035682    -0.000000002714    -0.000000027279
       7       -0.000000140045     0.000000173262     0.000000035387
       8       -0.000000012692     0.000000002501     0.000000051446
       9        0.000000583362    -0.000000162459    -0.000000106264
      10        0.000000232326     0.000000473896     0.000000298630
      11       -0.000000558867     0.000000121260    -0.000000437752
      12       -0.000000026610     0.000000445424    -0.000000162873
      13       -0.000000060309    -0.000000161041     0.000000051767
      14        0.000000051250     0.000000062934    -0.000000106899
      15       -0.000000521885    -0.000000829058     0.000000200069
      16        0.000000169931     0.000000163829     0.000000046622
      17       -0.000000173653    -0.000000152402     0.000000155992
      18       -0.000000088532    -0.000000099327     0.000000237987
      19       -0.000000140553     0.000000015477     0.000000162411
      20        0.000000154856     0.000000288463    -0.000000328814
      21        0.000000004855     0.000000194367    -0.000000066301
      22       -0.000000003504     0.000000110605    -0.000000126329
      23       -0.000000130361    -0.000000206904     0.000000170865
      24        0.000000098977    -0.000000406728     0.000000263653
      25        0.000000030259     0.000000069433    -0.000000405165
      26        0.000000109206     0.000000169020     0.000000184999

  **** Optimization is complete! (in 16 steps) ****
    Final optimized geometry and variables:
    Molecular point group: c1

    Geometry (in Angstrom), charge = 0, multiplicity = 1:

    C           -2.983602443818    -0.669766351678     0.657876576968
    H           -3.773012301827    -0.389197574420    -0.041695876181
    H           -2.793571418431     0.186176935607     1.305113860761
    H           -3.361722153330    -1.478035931458     1.283371747961
    C            3.270589637578    -0.952007290458    -0.151442862950
    H            3.427033647857    -0.675299520933    -1.194977251738
    H            3.484577159428    -2.015820730771    -0.051243244654
    H            3.998167117735    -0.404265399656     0.449067670355
    C           -1.724377734655    -1.096365869248    -0.089136419341
    H           -1.923308957882    -2.023186096487    -0.632279531117
    H           -0.936829207543    -1.328085095536     0.630746038443
    C            1.849168782759    -0.620249711071     0.286572074926
    H            1.141206876811    -1.198891966987    -0.307422090375
    H            1.703451784163    -0.925619716665     1.326599507850
    C           -1.232163356667    -0.044948692724    -1.082819708900
    H           -2.003740288524     0.100196638029    -1.845239918332
    H           -0.353272918193    -0.422547306888    -1.611115200483
    C           -0.911175826540     1.312661219982    -0.458468608095
    H           -1.828702124618     1.745771767699    -0.052448485287
    H           -0.582570070554     1.991643492923    -1.250815263703
    C            0.156965814935     1.303990473128     0.636483689368
    H            0.218026351681     2.317573751166     1.039396280372
    H           -0.158890656145     0.668696154598     1.469591174838
    C            1.552514858865     0.872348954749     0.167430584420
    H            1.698489752533     1.188744225848    -0.871313504246
    H            2.307573369760     1.404038317675     0.753598494253

*** Psi4 exiting successfully. Buy a developer a beer!
