                              Psi4 1.0.0 Driver

  ==> Input File <==

--------------------------------------------------------------------------
memory 60 Gb

molecule molecule_03_psi {
0 1
C            4.063925152115     0.348803629924     0.149747132870
H            4.825359721143     0.820378447302    -0.470968065909
H            4.380255260991    -0.675935027564     0.348337765918
H            4.033951191615     0.877159292045     1.103456505064
C           -2.911541730450     1.336577595485     0.518661678257
H           -3.404858320615     2.243272372534     0.169340134475
H           -1.941290103720     1.624261498854     0.923750677344
H           -3.504713060026     0.926013084806     1.337694039058
C            2.696541848732     0.370627350062    -0.522134703688
H            2.750301040687    -0.141938431978    -1.486295471240
H            2.406219153167     1.402738708046    -0.735875200326
C           -2.767648775241     0.318743725200    -0.607157475640
H           -3.745726550190     0.138464071132    -1.058582695564
H           -2.139504073143     0.733483131066    -1.398411270162
C            1.617846545187    -0.284227007490     0.331231572202
H            1.560293623475     0.229797098412     1.296397884577
H            1.906983604643    -1.317478633121     0.548821080326
C            0.243852478887    -0.272731078478    -0.326449697732
H            0.295725532698    -0.798983296854    -1.285709889921
H           -0.029888173373     0.761218009453    -0.555291098338
C           -0.829716094319    -0.915537595362     0.543471463257
H           -0.500929589106    -1.919942817709     0.825247805265
H           -0.919106285841    -0.353262858688     1.477008854609
C           -2.193855881258    -1.017856181621    -0.137577758050
H           -2.110353517483    -1.691214324943    -0.995470024523
H           -2.903071256688    -1.481606138839     0.554364505891
}

set globals {
  reference rhf
  g_convergence gau_verytight
  basis aug-cc-pvtz
  freeze_core true
  scf_type df
  mp_type df
}
optimize('mp2')
--------------------------------------------------------------------------

    Molecular point group: c1
  Charge       = 0
  Multiplicity = 1
  Basis Set: AUG-CC-PVTZ
  Basis Set:
  @DF-RHF Final Energy:  -313.54389282377628
    Total Energy =                       -313.5438928237765595
  Basis Set:
    Molecular point group: c1
  Basis Set: AUG-CC-PVTZ
  Basis Set:
  Basis Set:
	 Reference Energy          =    -313.5438928237762752 [Eh]
	 Singles Energy            =      -0.0000000000000000 [Eh]
	 Same-Spin Energy          =      -0.3158417617384323 [Eh]
	 Opposite-Spin Energy      =      -1.1246221448813856 [Eh]
	 Correlation Energy        =      -1.4404639066198179 [Eh]
	 Total Energy              =    -314.9843567303960867 [Eh]
	 SCS Total Energy          =    -314.9987199848800969 [Eh]
  Basis Set: AUG-CC-PVTZ
  Basis Set:
  @DF-RHF Final Energy:  -313.54389281931992
    Total Energy =                       -313.5438928193200354
  Basis Set:
  Basis Set: AUG-CC-PVTZ
  Basis Set:
  @DF-RHF Final Energy:  -313.54389285254081
    Total Energy =                       -313.5438928525408642
  @DF-RHF Final Energy:  -313.54389281687179
    Total Energy =                       -313.5438928168717894
  @DF-RHF Final Energy:  -313.54389271650655
    Total Energy =                       -313.5438927165064342
  @DF-RHF Final Energy:  -313.54389285841523
    Total Energy =                       -313.5438928584152336
  @DF-RHF Final Energy:  -313.54389282924620
    Total Energy =                       -313.5438928292462606
  @DF-RHF Final Energy:  -313.54389276420488
    Total Energy =                       -313.5438927642049407
  @DF-RHF Final Energy:  -313.54389277780786
    Total Energy =                       -313.5438927778078551
  @DF-RHF Final Energy:  -313.54389279619943
    Total Energy =                       -313.5438927961999980
  @DF-RHF Final Energy:  -313.54389274147292
    Total Energy =                       -313.5438927414730870
  @DF-RHF Final Energy:  -313.54389279295356
    Total Energy =                       -313.5438927929534998
  @DF-RHF Final Energy:  -313.54389268362650
    Total Energy =                       -313.5438926836264955
	 Singles Energy            =      -0.0000000000000002 [Eh]
	 Same-Spin Energy          =      -0.3158418103964167 [Eh]
	 Opposite-Spin Energy      =      -1.1246222392732452 [Eh]
	 Correlation Energy        =      -1.4404640496696621 [Eh]
	 Total Energy              =    -314.9843567332961811 [Eh]
	 SCS Total Energy          =    -314.9987199742198527 [Eh]
  Charge       = 0
  Multiplicity = 1
  Basis Set: AUG-CC-PVTZ
  Basis Set:

    Orbital Energies (a.u.)
    -----------------------

    Doubly Occupied:

       1A    -11.212553     2A    -11.211965     3A    -11.210623
       4A    -11.210299     5A    -11.209704     6A    -11.209130
       7A    -11.207119     8A    -11.206958     9A     -1.094429
      10A     -1.061542    11A     -1.008364    12A     -0.948665
      13A     -0.883038    14A     -0.828688    15A     -0.788214
      16A     -0.755966    17A     -0.653984    18A     -0.627095
      19A     -0.619675    20A     -0.582206    21A     -0.573408
      22A     -0.568024    23A     -0.537083    24A     -0.527660
      25A     -0.520471    26A     -0.504008    27A     -0.483706
      28A     -0.473739    29A     -0.468982    30A     -0.460195
      31A     -0.450574    32A     -0.443791    33A     -0.430822

  @DF-RHF Final Energy:  -313.54389277861236

   => Energetics <=

    Nuclear Repulsion Energy =            389.2526814552881547
    One-Electron Energy =               -1193.6477886976890659
    Two-Electron Energy =                 490.8512144637884376
    DFT Exchange-Correlation Energy =       0.0000000000000000
    Empirical Dispersion Energy =           0.0000000000000000
    PCM Polarization Energy =               0.0000000000000000
    EFP Energy =                            0.0000000000000000
    Total Energy =                       -313.5438927786124168
  Basis Set:
    Molecular point group: c1
  Basis Set: AUG-CC-PVTZ
  Basis Set:
  Basis Set:
	 Reference Energy          =    -313.5438927786123600 [Eh]
	 Singles Energy            =      -0.0000000000000002 [Eh]
	 Same-Spin Energy          =      -0.3158417827075749 [Eh]
	 Opposite-Spin Energy      =      -1.1246221693189984 [Eh]
	 Correlation Energy        =      -1.4404639520265736 [Eh]
	 Total Energy              =    -314.9843567306389218 [Eh]

	 ================> DF-SCS-MP2 Energies <==================
	-----------------------------------------------------------
	 SCS Same-Spin Scale       =       0.3333333333333333 [-]
	 SCS Opposite-Spin Scale   =       1.2000000000000000 [-]
	 SCS Same-Spin Energy      =      -0.1052805942358583 [Eh]
	 SCS Opposite-Spin Energy  =      -1.3495466031827981 [Eh]
	 SCS Correlation Energy    =      -1.4548271974186566 [Eh]
	 SCS Total Energy          =    -314.9987199760309977 [Eh]
	-----------------------------------------------------------

  -Total Gradient:
     Atom            X                  Y                   Z
    ------   -----------------  -----------------  -----------------
       1        0.000000174470    -0.000000044277     0.000000051987
       2       -0.000000199399    -0.000000106616     0.000000164938
       3       -0.000000109679     0.000000294586    -0.000000065883
       4       -0.000000010176    -0.000000090305    -0.000000220579
       5       -0.000000005927     0.000000014788     0.000000022345
       6        0.000000039340    -0.000000059508     0.000000002213
       7        0.000000023552     0.000000009064     0.000000011633
       8        0.000000024913     0.000000004727    -0.000000029920
       9       -0.000000149360     0.000000121640    -0.000000270551
      10       -0.000000022388     0.000000106062     0.000000305055
      11        0.000000089275    -0.000000271883     0.000000056396
      12       -0.000000103913     0.000000002237     0.000000050339
      13        0.000000049611    -0.000000008630     0.000000014448
      14        0.000000019891     0.000000017511    -0.000000076307
      15        0.000000642484    -0.000000064705    -0.000000030854
      16        0.000000045367    -0.000000013178    -0.000000056338
      17        0.000000039944     0.000000147529    -0.000000049425
      18       -0.000000231586    -0.000000117348     0.000000303944
      19        0.000000050351    -0.000000065891    -0.000000183681
      20        0.000000041163     0.000000157001    -0.000000121854
      21       -0.000000306559    -0.000000030701    -0.000000273088
      22        0.000000033501    -0.000000167520     0.000000051395
      23       -0.000000077137     0.000000196122     0.000000317783
      24       -0.000000023297     0.000000083984     0.000000055575
      25        0.000000002563    -0.000000065693    -0.000000094251
      26       -0.000000037002    -0.000000048998     0.000000064680

  **** Optimization is complete! (in 14 steps) ****
    Final optimized geometry and variables:
    Molecular point group: c1

    Geometry (in Angstrom), charge = 0, multiplicity = 1:

    C            4.063921132264     0.348810712879     0.149748259052
    H            4.825352597827     0.820399173995    -0.470960789777
    H            4.380258166229    -0.675928658625     0.348324707907
    H            4.033944327871     0.877153050207     1.103465063640
    C           -2.911530778231     1.336583489365     0.518655029557
    H           -3.404840181057     2.243280301789     0.169328848589
    H           -1.941277105128     1.624261901672     0.923742950458
    H           -3.504705445692     0.926027654081     1.337689004489
    C            2.696537355539     0.370634917796    -0.522132190434
    H            2.750298814736    -0.141917989350    -1.486299746053
    H            2.406208877040     1.402747584484    -0.735859352329
    C           -2.767645292327     0.318742570880    -0.607158659230
    H           -3.745724507554     0.138465505260    -1.058581144040
    H           -2.139499806131     0.733473796952    -1.398415656637
    C            1.617846684498    -0.284236029051     0.331227013292
    H            1.560293896398     0.229775295576     1.296400553821
    H            1.906989559398    -1.317489244337     0.548803020444
    C            0.243850380316    -0.272738389719    -0.326450027879
    H            0.295718892236    -0.798992194563    -1.285709963663
    H           -0.029889099574     0.761211245504    -0.555292650798
    C           -0.829717949393    -0.915540517316     0.543475102154
    H           -0.500932629682    -1.919945671081     0.825253169967
    H           -0.919105499147    -0.353263234020     1.477011252100
    C           -2.193858626448    -1.017857464264    -0.137571992047
    H           -2.110359457272    -1.691220443318    -0.995460338588
    H           -2.903075612424    -1.481600231325     0.554372761250

*** Psi4 exiting successfully. Buy a developer a beer!
