                              Psi4 1.0.0 Driver

  ==> Input File <==

--------------------------------------------------------------------------
memory 30 Gb

molecule molecule_30_psi {
0 1
symmetry c1
    C           -4.043958726254    -0.260548940365    -0.139899140762
    H           -4.345145647250     0.522541594324     0.553580168893
    H           -4.724639990912    -1.099573313161    -0.015397950373
    H           -4.167787757830     0.125849821436    -1.149953874992
    C            2.758148285602    -1.544840682132     0.165429890971
    H            3.160738110458    -2.333940565297    -0.466523238601
    H            1.740949953572    -1.814646897429     0.434516946652
    H            3.345518831276    -1.518012741499     1.081769158295
    C           -2.602609969275    -0.666401708757     0.104407913241
    H           -2.322724507236    -1.465750451689    -0.583527270552
    H           -2.499315210390    -1.073400125410     1.111513644462
    C            2.813361776468    -0.194533428124    -0.530530535249
    H            3.852726007761     0.029465527116    -0.768218567216
    H            2.287345507763    -0.247842501749    -1.485786819936
    C           -1.635401730592     0.489659895946    -0.062432229266
    H           -1.910265334267     1.292421850007     0.626159061767
    H           -1.733974058297     0.899330026487    -1.070913850213
    C           -0.190365162113     0.096872131187     0.177298412033
    H            0.070098808960    -0.715870674503    -0.502706482652
    H           -0.085456639173    -0.296907101858     1.191526840121
    C            0.768177022987     1.257101251093    -0.016474431552
    H            0.700445342623     1.597589637742    -1.052662180456
    H            0.437819111349     2.091791091555     0.605377713297
    C            2.222792635068     0.944979816460     0.300939598850
    H            2.806670354602     1.852198853386     0.144682785015
    H            2.313666381731     0.698689712011     1.361572732838
}

set globals {
  reference rhf
  g_convergence gau_verytight
  basis aug-cc-pvtz
  freeze_core true
  scf_type df
  mp_type df
}
optimize('mp2')
--------------------------------------------------------------------------

    Molecular point group: c1
  Charge       = 0
  Multiplicity = 1
  Basis Set: AUG-CC-PVTZ
  Basis Set:
  @DF-RHF Final Energy:  -313.54067955333062
    Total Energy =                       -313.5406795533307331
  Basis Set:
    Molecular point group: c1
  Basis Set: AUG-CC-PVTZ
  Basis Set:
  Basis Set:
	 Reference Energy          =    -313.5406795533306195 [Eh]
	 Singles Energy            =      -0.0000000000000000 [Eh]
	 Same-Spin Energy          =      -0.3160131100108893 [Eh]
	 Opposite-Spin Energy      =      -1.1243015571300148 [Eh]
	 Correlation Energy        =      -1.4403146671409042 [Eh]
	 Total Energy              =    -314.9809942204715298 [Eh]
	 SCS Total Energy          =    -314.9951791252236148 [Eh]
  Basis Set: AUG-CC-PVTZ
  Basis Set:
  @DF-RHF Final Energy:  -313.54092355883648
    Total Energy =                       -313.5409235588365391
  Basis Set:
  Basis Set: AUG-CC-PVTZ
  Basis Set:
  @DF-RHF Final Energy:  -313.54094021204492
    Total Energy =                       -313.5409402120451432
  @DF-RHF Final Energy:  -313.54097122819712
    Total Energy =                       -313.5409712281971224
  @DF-RHF Final Energy:  -313.54097904814290
    Total Energy =                       -313.5409790481428445
  @DF-RHF Final Energy:  -313.54098130733718
    Total Energy =                       -313.5409813073370060
  @DF-RHF Final Energy:  -313.54098143037066
    Total Energy =                       -313.5409814303706071
  @DF-RHF Final Energy:  -313.54098170584808
    Total Energy =                       -313.5409817058481394
  @DF-RHF Final Energy:  -313.54098112947014
    Total Energy =                       -313.5409811294702536
  @DF-RHF Final Energy:  -313.54098111787920
    Total Energy =                       -313.5409811178791415
  @DF-RHF Final Energy:  -313.54098121412238
    Total Energy =                       -313.5409812141223824
  @DF-RHF Final Energy:  -313.54098174159509
    Total Energy =                       -313.5409817415949192
  @DF-RHF Final Energy:  -313.54098157135542
    Total Energy =                       -313.5409815713550188
  @DF-RHF Final Energy:  -313.54098064766799
    Total Energy =                       -313.5409806476680501
  @DF-RHF Final Energy:  -313.54098102002621
    Total Energy =                       -313.5409810200258107
  @DF-RHF Final Energy:  -313.54098106134319
    Total Energy =                       -313.5409810613430182
  @DF-RHF Final Energy:  -313.54098063770823
    Total Energy =                       -313.5409806377079462
  @DF-RHF Final Energy:  -313.54098149771266
    Total Energy =                       -313.5409814977127212
  @DF-RHF Final Energy:  -313.54098125067333
    Total Energy =                       -313.5409812506732123
  @DF-RHF Final Energy:  -313.54098121401472
    Total Energy =                       -313.5409812140148915
  @DF-RHF Final Energy:  -313.54098105885595
    Total Energy =                       -313.5409810588558912
  @DF-RHF Final Energy:  -313.54098118795702
    Total Energy =                       -313.5409811879572999
  @DF-RHF Final Energy:  -313.54098150600419
    Total Energy =                       -313.5409815060041865
  @DF-RHF Final Energy:  -313.54098133428931
    Total Energy =                       -313.5409813342894836
  @DF-RHF Final Energy:  -313.54098113854303
    Total Energy =                       -313.5409811385429748
  @DF-RHF Final Energy:  -313.54098105868803
    Total Energy =                       -313.5409810586884305
  @DF-RHF Final Energy:  -313.54098135222034
    Total Energy =                       -313.5409813522204558
  @DF-RHF Final Energy:  -313.54098139833263
    Total Energy =                       -313.5409813983324625
  @DF-RHF Final Energy:  -313.54098181102887
    Total Energy =                       -313.5409818110290985
  @DF-RHF Final Energy:  -313.54098130922603
    Total Energy =                       -313.5409813092257423
  @DF-RHF Final Energy:  -313.54098136115948
    Total Energy =                       -313.5409813611593108
  @DF-RHF Final Energy:  -313.54098168503464
    Total Energy =                       -313.5409816850349216
  @DF-RHF Final Energy:  -313.54098112542624
    Total Energy =                       -313.5409811254263559
  @DF-RHF Final Energy:  -313.54098116058873
    Total Energy =                       -313.5409811605886716
  @DF-RHF Final Energy:  -313.54098145654166
    Total Energy =                       -313.5409814565414308
  @DF-RHF Final Energy:  -313.54098126867854
    Total Energy =                       -313.5409812686782516
  @DF-RHF Final Energy:  -313.54098082341864
    Total Energy =                       -313.5409808234185220
  @DF-RHF Final Energy:  -313.54098136418406
    Total Energy =                       -313.5409813641839492
  @DF-RHF Final Energy:  -313.54098108153892
    Total Energy =                       -313.5409810815389164
	 Singles Energy            =      -0.0000000000000000 [Eh]
	 Same-Spin Energy          =      -0.3156056315575694 [Eh]
	 Opposite-Spin Energy      =      -1.1246684724220513 [Eh]
	 Correlation Energy        =      -1.4402741039796207 [Eh]
	 Total Energy              =    -314.9812551855185347 [Eh]
	 SCS Total Energy          =    -314.9957851256312438 [Eh]
  Charge       = 0
  Multiplicity = 1
  Basis Set: AUG-CC-PVTZ
  Basis Set:

    Orbital Energies (a.u.)
    -----------------------

    Doubly Occupied:

       1A    -11.212726     2A    -11.212672     3A    -11.211012
       4A    -11.210397     5A    -11.210217     6A    -11.209548
       7A    -11.207186     8A    -11.205698     9A     -1.093372
      10A     -1.060334    11A     -1.008977    12A     -0.951224
      13A     -0.881014    14A     -0.820777    15A     -0.787317
      16A     -0.768930    17A     -0.651790    18A     -0.624615
      19A     -0.609355    20A     -0.592887    21A     -0.578337
      22A     -0.555211    23A     -0.545857    24A     -0.530472
      25A     -0.514392    26A     -0.501954    27A     -0.481185
      28A     -0.477265    29A     -0.467552    30A     -0.461594
      31A     -0.454153    32A     -0.441265    33A     -0.428624

  @DF-RHF Final Energy:  -313.54098106725297

   => Energetics <=

    Nuclear Repulsion Energy =            388.6065466332151459
    One-Electron Energy =               -1192.3592343325158254
    Two-Electron Energy =                 490.2117066320477079
    DFT Exchange-Correlation Energy =       0.0000000000000000
    Empirical Dispersion Energy =           0.0000000000000000
    PCM Polarization Energy =               0.0000000000000000
    EFP Energy =                            0.0000000000000000
    Total Energy =                       -313.5409810672529147
  Basis Set:
    Molecular point group: c1
  Basis Set: AUG-CC-PVTZ
  Basis Set:
  Basis Set:
	 Reference Energy          =    -313.5409810672529716 [Eh]
	 Singles Energy            =      -0.0000000000000000 [Eh]
	 Same-Spin Energy          =      -0.3156056423522000 [Eh]
	 Opposite-Spin Energy      =      -1.1246684725318028 [Eh]
	 Correlation Energy        =      -1.4402741148840028 [Eh]
	 Total Energy              =    -314.9812551821369766 [Eh]

	 ================> DF-SCS-MP2 Energies <==================
	-----------------------------------------------------------
	 SCS Same-Spin Scale       =       0.3333333333333333 [-]
	 SCS Opposite-Spin Scale   =       1.2000000000000000 [-]
	 SCS Same-Spin Energy      =      -0.1052018807840667 [Eh]
	 SCS Opposite-Spin Energy  =      -1.3496021670381633 [Eh]
	 SCS Correlation Energy    =      -1.4548040478222299 [Eh]
	 SCS Total Energy          =    -314.9957851150751935 [Eh]
	-----------------------------------------------------------

  -Total Gradient:
     Atom            X                  Y                   Z
    ------   -----------------  -----------------  -----------------
       1        0.000000203134    -0.000000047637     0.000000053915
       2       -0.000000106605     0.000000189506     0.000000151715
       3       -0.000000189518    -0.000000197152     0.000000029331
       4       -0.000000041006     0.000000094231    -0.000000223135
       5       -0.000000059480    -0.000000051657     0.000000036052
       6       -0.000000081255     0.000000099696     0.000000080577
       7        0.000000117438     0.000000037881    -0.000000033013
       8       -0.000000093431     0.000000017476    -0.000000173514
       9       -0.000000035565     0.000000148424    -0.000000015874
      10        0.000000087807    -0.000000116820    -0.000000111600
      11        0.000000032024    -0.000000107255     0.000000177999
      12        0.000000190052    -0.000000005198    -0.000000061905
      13       -0.000000177655     0.000000006920    -0.000000006550
      14        0.000000062640    -0.000000017133     0.000000157553
      15        0.000000278662    -0.000000089270    -0.000000054238
      16        0.000000001719     0.000000046475     0.000000049294
      17        0.000000013995     0.000000034735    -0.000000071699
      18       -0.000000114972     0.000000064165    -0.000000010511
      19       -0.000000025620    -0.000000091705    -0.000000041417
      20        0.000000020728    -0.000000012129     0.000000003266
      21       -0.000000108394    -0.000000013440     0.000000078892
      22       -0.000000012694     0.000000022724    -0.000000112249
      23       -0.000000020630     0.000000124915     0.000000084914
      24        0.000000025761    -0.000000084078     0.000000039539
      25       -0.000000002705    -0.000000018282     0.000000011887
      26        0.000000035567    -0.000000035392    -0.000000039231

  **** Optimization is complete! (in 49 steps) ****
    Final optimized geometry and variables:
    Molecular point group: c1

    Geometry (in Angstrom), charge = 0, multiplicity = 1:

    C           -4.065685364629    -0.262334903121    -0.128224310536
    H           -4.364404202822     0.524806486850     0.565149817508
    H           -4.749883753427    -1.100536249614     0.001193801157
    H           -4.193538424308     0.121926315070    -1.140949269713
    C            2.776514488096    -1.546491563261     0.148729289601
    H            3.207016404296    -2.324250446550    -0.482471419837
    H            1.752950984259    -1.832817284999     0.384092081170
    H            3.337001303644    -1.528205789787     1.084389153239
    C           -2.618711698297    -0.673827342047     0.113796208285
    H           -2.343872752533    -1.479305529930    -0.572435388588
    H           -2.513521167591    -1.078246674772     1.124060649504
    C            2.841733969846    -0.181307465514    -0.531201282628
    H            3.888582808362     0.046966273587    -0.740423548149
    H            2.340482825024    -0.223762225414    -1.502694215931
    C           -1.646066540051     0.485282192550    -0.062974410955
    H           -1.920156251750     1.294703722638     0.621367123221
    H           -1.746839823779     0.889675504340    -1.075537528328
    C           -0.194475307718     0.090706914531     0.178524202351
    H            0.065874642386    -0.727061038473    -0.498957420611
    H           -0.089389033671    -0.299417450919     1.196353675289
    C            0.766980264142     1.256178590234    -0.021770027953
    H            0.699168083689     1.593189343342    -1.061327179114
    H            0.433152706795     2.095404260672     0.595970046029
    C            2.229576577218     0.953439873069     0.302255738915
    H            2.804160984003     1.869254736480     0.147261735304
    H            2.323190973860     0.709254435744     1.365252447637

*** Psi4 exiting successfully. Buy a developer a beer!
